<?xml version="1.0"?>
<VTKFile type="ImageData" version="0.1" byte_order="LittleEndian" header_type="UInt32" compressor="vtkZLibDataCompressor">
  <ImageData WholeExtent="0 19 0 19 0 19" Origin="0 0 0" Spacing="1 1 1">
  <Piece Extent="0 19 0 19 0 19">
    <PointData>
      <DataArray type="Float64" Name="Datas" format="ascii" RangeMin="0" RangeMax="0.989578">
        0 0 0 0 0 0
        0 0 0 0 0 0
        0 0 0 0 0 0
        0 0 0 0 0 0
        0 0 0 0 0 0
        0 0 0 0 0 0
        0 0 0 0 0 0
        0 0 0 0 0 0
        0 0 0 0 0 0
        0 0 0 0 0 0
        0 0 0 0 0 0
        0 0 0 0 0 0
        0 0 0 0 0 0
        0 0 0 0 0 0
        0 0 0 0 0 0
        0 0 0 0 0 0
        0 0 0 0 0 0
        0 0 0 0 0 0
        0 0 0 0 0 0
        0 0 0 0 0 0
        0 0 0 0 0 0
        0 0 0 0 0 0
        0 0 0 0 0 0
        0 0 0 0 0 0
        0 0 0 0 0 0
        0 0 0 0 0 0
        0 0 0 0 0 0
        0 0 0 0 0 0
        0 0 0 0 0 0
        0 0 0 0 0 0
        0 0 0 0 0 0
        0 0 0 0 0 0
        0 0 0 0 0 0
        0 0 0 0 0 0
        0 0 0 0 0 0
        0 0 0 0 0 0
        0 0 0 0 0 0
        0 0 0 0 0 0
        0 0 0 0 0 0
        0 0 0 0 0 0
        0 0 0 0 0 0
        0 0 0 0 0 0
        0 0 0 0 0 0
        0 0 0 0 0 0
        0 0 0 0 0 0
        0 0 0 0 0 0
        0 0 0 0 0 0
        0 0 0 0 0 0
        0 0 0 0 0 0
        0 0 0 0 0 0
        0 0 0 0 0 0
        0 0 0 0 0 0
        0 0 0 0 0 0
        0 0 0 0 0 0
        0 0 0 0 0 0
        0 0 0 0 0 0
        0 0 0 0 0 0
        0 0 0 0 0 0
        0 0 0 0 0 0
        0 0 0 0 0 0
        0 0 0 0 0 0
        0 0 0 0 0 0
        0 0 0 0 0 0
        0 0 0 0 0 0
        0 0 0 0 0 0
        0 0 0 0 0 0
        0 0 0 0 0 0
        0 0 0 0 0 0
        0 0 0 0 0 0
        0 0 0 0 0 0
        0 0.00445295 0.00878487 0.0128776 0.0166194 0.0199082
        0.0226542 0.0247826 0.0262351 0.0269721 0.0269734 0.0262389
        0.0247886 0.0226619 0.0199169 0.0166283 0.0128858 0.00879137
        0.00445672 0 0 0.00878487 0.0173309 0.0254051
        0.0327869 0.0392751 0.0446925 0.0488913 0.0517568 0.0532107
        0.0532133 0.0517642 0.048903 0.0447075 0.0392921 0.0328043
        0.0254211 0.0173436 0.00879221 0 0 0.0128776
        0.0254051 0.0372407 0.0480616 0.0575725 0.0655137 0.0716686
        0.075869 0.0780002 0.0780038 0.0758797 0.0716855 0.0655354
        0.0575971 0.0480868 0.0372639 0.0254234 0.0128882 0
        0 0.0166194 0.0327869 0.0480616 0.0620267 0.074301
        0.0845496 0.0924928 0.0979136 0.100664 0.100669 0.0979273
        0.0925143 0.0845773 0.0743323 0.0620588 0.0480912 0.0328104
        0.0166329 0 0 0.0199082 0.0392751 0.0575725
        0.074301 0.0890042 0.101281 0.110796 0.117289 0.120584
        0.120589 0.117305 0.110821 0.101314 0.0890413 0.074339
        0.0576075 0.0393029 0.0199242 0 0 0.0226542
        0.0446925 0.0655137 0.0845496 0.101281 0.115251 0.126078
        0.133467 0.137216 0.137222 0.133485 0.126107 0.115288
        0.101323 0.0845924 0.0655531 0.0447237 0.0226723 0
        0 0.0247826 0.0488913 0.0716686 0.0924928 0.110796
        0.126078 0.137922 0.146006 0.150107 0.150113 0.146025
        0.137953 0.126118 0.110841 0.092539 0.0717111 0.0489251
        0.0248021 0 0 0.0262351 0.0517568 0.075869
        0.0979136 0.117289 0.133467 0.146006 0.154562 0.158904
        0.158911 0.154583 0.146038 0.133509 0.117336 0.097962
        0.0759135 0.0517921 0.0262555 0 0 0.0269721
        0.0532107 0.0780002 0.100664 0.120584 0.137216 0.150107
        0.158904 0.163367 0.163374 0.158925 0.15014 0.137258
        0.120632 0.100713 0.0780454 0.0532466 0.0269928 0
        0 0.0269734 0.0532133 0.0780038 0.100669 0.120589
        0.137222 0.150113 0.158911 0.163374 0.163381 0.158931
        0.150146 0.137264 0.120637 0.100717 0.0780486 0.0532487
        0.0269939 0 0 0.0262389 0.0517642 0.0758797
        0.0979273 0.117305 0.133485 0.146025 0.154583 0.158925
        0.158931 0.154603 0.146057 0.133526 0.117351 0.097974
        0.0759227 0.0517983 0.0262586 0 0 0.0247886
        0.048903 0.0716855 0.0925143 0.110821 0.126107 0.137953
        0.146038 0.15014 0.150146 0.146057 0.137983 0.126144
        0.110864 0.092558 0.0717256 0.0489348 0.024807 0
        0 0.0226619 0.0447075 0.0655354 0.0845773 0.101314
        0.115288 0.126118 0.133509 0.137258 0.137264 0.133526
        0.126144 0.115321 0.101352 0.0846167 0.0655717 0.0447363
        0.0226786 0 0 0.0199169 0.0392921 0.0575971
        0.0743323 0.0890413 0.101323 0.110841 0.117336 0.120632
        0.120637 0.117351 0.110864 0.101352 0.0890747 0.0743666
        0.0576286 0.0393171 0.0199314 0 0 0.0166283
        0.0328043 0.0480868 0.0620588 0.074339 0.0845924 0.092539
        0.097962 0.100713 0.100717 0.097974 0.092558 0.0846167
        0.0743666 0.062087 0.0481128 0.032825 0.0166402 0
        0 0.0128858 0.0254211 0.0372639 0.0480912 0.0576075
        0.0655531 0.0717111 0.0759135 0.0780454 0.0780486 0.0759227
        0.0717256 0.0655717 0.0576286 0.0481128 0.0372838 0.0254369
        0.0128949 0 0 0.00879137 0.0173436 0.0254234
        0.0328104 0.0393029 0.0447237 0.0489251 0.0517921 0.0532466
        0.0532487 0.0517983 0.0489348 0.0447363 0.0393171 0.032825
        0.0254369 0.0173543 0.00879755 0 0 0.00445672
        0.00879221 0.0128882 0.0166329 0.0199242 0.0226723 0.0248021
        0.0262555 0.0269928 0.0269939 0.0262586 0.024807 0.0226786
        0.0199314 0.0166402 0.0128949 0.00879755 0.00445981 0
        0 0 0 0 0 0
        0 0 0 0 0 0
        0 0 0 0 0 0
        0 0 0 0 0 0
        0 0 0 0 0 0
        0 0 0 0 0 0
        0 0 0 0 0 0.00878487
        0.0173309 0.0254051 0.0327869 0.0392751 0.0446925 0.0488913
        0.0517568 0.0532107 0.0532133 0.0517642 0.048903 0.0447075
        0.0392921 0.0328043 0.0254211 0.0173436 0.00879221 0
        0 0.0173309 0.0341908 0.0501195 0.0646825 0.0774825
        0.08817 0.0964533 0.102106 0.104975 0.104979 0.102121
        0.0964761 0.0881991 0.0775155 0.0647164 0.0501507 0.0342155
        0.0173453 0 0 0.0254051 0.0501195 0.073469
        0.0948166 0.11358 0.129246 0.141388 0.149675 0.153879
        0.153886 0.149696 0.141421 0.129288 0.113628 0.0948657
        0.0735142 0.0501553 0.0254258 0 0 0.0327869
        0.0646825 0.0948166 0.122367 0.146582 0.1668 0.18247
        0.193165 0.19859 0.1986 0.193191 0.182513 0.166854
        0.146643 0.12243 0.0948742 0.0647282 0.0328134 0
        0 0.0392751 0.0774825 0.11358 0.146582 0.175588
        0.199808 0.218579 0.231389 0.237888 0.237899 0.23142
        0.218628 0.199871 0.175661 0.146656 0.113648 0.0775365
        0.0393064 0 0 0.0446925 0.08817 0.129246
        0.1668 0.199808 0.227367 0.248727 0.263305 0.2707
        0.270712 0.26334 0.248783 0.227439 0.199889 0.166884
        0.129323 0.0882308 0.0447278 0 0 0.0488913
        0.0964533 0.141388 0.18247 0.218579 0.248727 0.272094
        0.28804 0.296131 0.296144 0.288079 0.272155 0.248805
        0.218667 0.182561 0.141471 0.0965191 0.0489294 0
        0 0.0517568 0.102106 0.149675 0.193165 0.231389
        0.263305 0.28804 0.304921 0.313485 0.313499 0.304961
        0.288104 0.263386 0.231481 0.193259 0.149762 0.102175
        0.0517967 0 0 0.0532107 0.104975 0.153879
        0.19859 0.237888 0.2707 0.296131 0.313485 0.32229
        0.322304 0.313526 0.296195 0.270783 0.237982 0.198686
        0.153967 0.105044 0.0532512 0 0 0.0532133
        0.104979 0.153886 0.1986 0.237899 0.270712 0.296144
        0.313499 0.322304 0.322318 0.313539 0.296207 0.270794
        0.237992 0.198694 0.153974 0.105049 0.0532533 0
        0 0.0517642 0.102121 0.149696 0.193191 0.23142
        0.26334 0.288079 0.304961 0.313526 0.313539 0.305
        0.28814 0.263418 0.231509 0.193282 0.14978 0.102187
        0.0518027 0 0 0.048903 0.0964761 0.141421
        0.182513 0.218628 0.248783 0.272155 0.288104 0.296195
        0.296207 0.28814 0.272212 0.248857 0.218711 0.182598
        0.1415 0.0965381 0.048939 0 0 0.0447075
        0.0881991 0.129288 0.166854 0.199871 0.227439 0.248805
        0.263386 0.270783 0.270794 0.263418 0.248857 0.227505
        0.199946 0.166931 0.129359 0.0882553 0.04474 0
        0 0.0392921 0.0775155 0.113628 0.146643 0.175661
        0.199889 0.218667 0.231481 0.237982 0.237992 0.231509
        0.218711 0.199946 0.175726 0.14671 0.113689 0.0775643
        0.0393203 0 0 0.0328043 0.0647164 0.0948657
        0.12243 0.146656 0.166884 0.182561 0.193259 0.198686
        0.198694 0.193282 0.182598 0.166931 0.14671 0.122485
        0.0949164 0.0647566 0.0328276 0 0 0.0254211
        0.0501507 0.0735142 0.0948742 0.113648 0.129323 0.141471
        0.149762 0.153967 0.153974 0.14978 0.1415 0.129359
        0.113689 0.0949164 0.0735531 0.0501815 0.0254389 0
        0 0.0173436 0.0342155 0.0501553 0.0647282 0.0775365
        0.0882308 0.0965191 0.102175 0.105044 0.105049 0.102187
        0.0965381 0.0882553 0.0775643 0.0647566 0.0501815 0.0342363
        0.0173557 0 0 0.00879221 0.0173453 0.0254258
        0.0328134 0.0393064 0.0447278 0.0489294 0.0517967 0.0532512
        0.0532533 0.0518027 0.048939 0.04474 0.0393203 0.0328276
        0.0254389 0.0173557 0.00879825 0 0 0
        0 0 0 0 0 0
        0 0 0 0 0 0
        0 0 0 0 0 0
        0 0 0 0 0 0
        0 0 0 0 0 0
        0 0 0 0 0 0
        0 0 0 0.0128776 0.0254051 0.0372407
        0.0480616 0.0575725 0.0655137 0.0716686 0.075869 0.0780002
        0.0780038 0.0758797 0.0716855 0.0655354 0.0575971 0.0480868
        0.0372639 0.0254234 0.0128882 0 0 0.0254051
        0.0501195 0.073469 0.0948166 0.11358 0.129246 0.141388
        0.149675 0.153879 0.153886 0.149696 0.141421 0.129288
        0.113628 0.0948657 0.0735142 0.0501553 0.0254258 0
        0 0.0372407 0.073469 0.107696 0.138989 0.166493
        0.189458 0.207257 0.219404 0.225567 0.225577 0.219434
        0.207305 0.18952 0.166563 0.13906 0.107762 0.0735209
        0.0372708 0 0 0.0480616 0.0948166 0.138989
        0.179375 0.21487 0.244508 0.267478 0.283154 0.291108
        0.291121 0.283193 0.267539 0.244586 0.214959 0.179465
        0.139073 0.0948827 0.0480999 0 0 0.0575725
        0.11358 0.166493 0.21487 0.25739 0.292892 0.320408
        0.339186 0.348713 0.348729 0.339232 0.32048 0.292985
        0.257495 0.214978 0.166592 0.113658 0.0576178 0
        0 0.0655137 0.129246 0.189458 0.244508 0.292892
        0.333291 0.364602 0.38597 0.396811 0.396829 0.386021
        0.364683 0.333395 0.29301 0.244629 0.18957 0.129334
        0.0655647 0 0 0.0716686 0.141388 0.207257
        0.267478 0.320408 0.364602 0.398854 0.422229 0.434089
        0.434108 0.422285 0.398942 0.364715 0.320536 0.267609
        0.207378 0.141484 0.0717237 0 0 0.075869
        0.149675 0.219404 0.283154 0.339186 0.38597 0.422229
        0.446974 0.459528 0.459548 0.447032 0.422321 0.386088
        0.339319 0.283291 0.21953 0.149775 0.0759267 0
        0 0.0780002 0.153879 0.225567 0.291108 0.348713
        0.396811 0.434089 0.459528 0.472434 0.472454 0.459587
        0.434182 0.396931 0.348849 0.291247 0.225695 0.153981
        0.0780589 0 0 0.0780038 0.153886 0.225577
        0.291121 0.348729 0.396829 0.434108 0.459548 0.472454
        0.472474 0.459606 0.4342 0.396947 0.348863 0.291258
        0.225704 0.153987 0.0780619 0 0 0.0758797
        0.149696 0.219434 0.283193 0.339232 0.386021 0.422285
        0.447032 0.459587 0.459606 0.447088 0.422373 0.386135
        0.339361 0.283325 0.219556 0.149792 0.0759355 0
        0 0.0716855 0.141421 0.207305 0.267539 0.32048
        0.364683 0.398942 0.422321 0.434182 0.4342 0.422373
        0.399025 0.364789 0.3206 0.267662 0.207419 0.141511
        0.0717376 0 0 0.0655354 0.129288 0.18952
        0.244586 0.292985 0.333395 0.364715 0.386088 0.396931
        0.396947 0.386135 0.364789 0.333491 0.293093 0.244697
        0.189622 0.12937 0.0655825 0 0 0.0575971
        0.113628 0.166563 0.214959 0.257495 0.29301 0.320536
        0.339319 0.348849 0.348863 0.339361 0.3206 0.293093
        0.257589 0.215056 0.166652 0.113698 0.057638 0
        0 0.0480868 0.0948657 0.13906 0.179465 0.214978
        0.244629 0.267609 0.283291 0.291247 0.291258 0.283325
        0.267662 0.244697 0.215056 0.179545 0.139134 0.094924
        0.0481206 0 0 0.0372639 0.0735142 0.107762
        0.139073 0.166592 0.18957 0.207378 0.21953 0.225695
        0.225704 0.219556 0.207419 0.189622 0.166652 0.139134
        0.107818 0.0735589 0.0372898 0 0 0.0254234
        0.0501553 0.0735209 0.0948827 0.113658 0.129334 0.141484
        0.149775 0.153981 0.153987 0.149792 0.141511 0.12937
        0.113698 0.094924 0.0735589 0.0501854 0.0254409 0
        0 0.0128882 0.0254258 0.0372708 0.0480999 0.0576178
        0.0655647 0.0717237 0.0759267 0.0780589 0.0780619 0.0759355
        0.0717376 0.0655825 0.057638 0.0481206 0.0372898 0.0254409
        0.012897 0 0 0 0 0
        0 0 0 0 0 0
        0 0 0 0 0 0
        0 0 0 0 0 0
        0 0 0 0 0 0
        0 0 0 0 0 0
        0 0 0 0 0 0
        0 0.0166194 0.0327869 0.0480616 0.0620267 0.074301
        0.0845496 0.0924928 0.0979136 0.100664 0.100669 0.0979273
        0.0925143 0.0845773 0.0743323 0.0620588 0.0480912 0.0328104
        0.0166329 0 0 0.0327869 0.0646825 0.0948166
        0.122367 0.146582 0.1668 0.18247 0.193165 0.19859
        0.1986 0.193191 0.182513 0.166854 0.146643 0.12243
        0.0948742 0.0647282 0.0328134 0 0 0.0480616
        0.0948166 0.138989 0.179375 0.21487 0.244508 0.267478
        0.283154 0.291108 0.291121 0.283193 0.267539 0.244586
        0.214959 0.179465 0.139073 0.0948827 0.0480999 0
        0 0.0620267 0.122367 0.179375 0.231494 0.277304
        0.315553 0.345197 0.365428 0.375692 0.375709 0.365477
        0.345275 0.315652 0.277416 0.23161 0.179481 0.122451
        0.0620756 0 0 0.074301 0.146582 0.21487
        0.277304 0.332178 0.377995 0.413506 0.43774 0.450035
        0.450055 0.437798 0.413598 0.378113 0.332311 0.277441
        0.214996 0.146682 0.0743589 0 0 0.0845496
        0.1668 0.244508 0.315553 0.377995 0.430133 0.470541
        0.498117 0.512108 0.51213 0.498183 0.470644 0.430265
        0.378146 0.315707 0.24465 0.166913 0.0846147 0
        0 0.0924928 0.18247 0.267478 0.345197 0.413506
        0.470541 0.514745 0.544911 0.560216 0.56024 0.544982
        0.514857 0.470684 0.413669 0.345364 0.267632 0.182592
        0.0925632 0 0 0.0979136 0.193165 0.283154
        0.365428 0.43774 0.498117 0.544911 0.576845 0.593047
        0.593072 0.57692 0.545028 0.498267 0.43791 0.365602
        0.283315 0.193292 0.0979873 0 0 0.100664
        0.19859 0.291108 0.375692 0.450035 0.512108 0.560216
        0.593047 0.609703 0.609729 0.593122 0.560335 0.51226
        0.450208 0.375869 0.291271 0.19872 0.100739 0
        0 0.100669 0.1986 0.291121 0.375709 0.450055
        0.51213 0.56024 0.593072 0.609729 0.609754 0.593147
        0.560358 0.512281 0.450226 0.375884 0.291282 0.198727
        0.100743 0 0 0.0979273 0.193191 0.283193
        0.365477 0.437798 0.498183 0.544982 0.57692 0.593122
        0.593147 0.576991 0.545095 0.498327 0.437962 0.365645
        0.283348 0.193314 0.0979985 0 0 0.0925143
        0.182513 0.267539 0.345275 0.413598 0.470644 0.514857
        0.545028 0.560335 0.560358 0.545095 0.514962 0.470779
        0.413751 0.345432 0.267684 0.182627 0.0925809 0
        0 0.0845773 0.166854 0.244586 0.315652 0.378113
        0.430265 0.470684 0.498267 0.51226 0.512281 0.498327
        0.470779 0.430387 0.378252 0.315794 0.244717 0.166958
        0.0846374 0 0 0.0743323 0.146643 0.214959
        0.277416 0.332311 0.378146 0.413669 0.43791 0.450208
        0.450226 0.437962 0.413751 0.378252 0.332432 0.27754
        0.215073 0.146733 0.0743846 0 0 0.0620588
        0.12243 0.179465 0.23161 0.277441 0.315707 0.345364
        0.365602 0.375869 0.375884 0.365645 0.345432 0.315794
        0.27754 0.231712 0.179559 0.122504 0.0621019 0
        0 0.0480912 0.0948742 0.139073 0.179481 0.214996
        0.24465 0.267632 0.283315 0.291271 0.291282 0.283348
        0.267684 0.244717 0.215073 0.179559 0.139145 0.0949312
        0.0481242 0 0 0.0328104 0.0647282 0.0948827
        0.122451 0.146682 0.166913 0.182592 0.193292 0.19872
        0.198727 0.193314 0.182627 0.166958 0.146733 0.122504
        0.0949312 0.0647666 0.0328327 0 0 0.0166329
        0.0328134 0.0480999 0.0620756 0.0743589 0.0846147 0.0925632
        0.0979873 0.100739 0.100743 0.0979985 0.0925809 0.0846374
        0.0743846 0.0621019 0.0481242 0.0328327 0.0166441 0
        0 0 0 0 0 0
        0 0 0 0 0 0
        0 0 0 0 0 0
        0 0 0 0 0 0
        0 0 0 0 0 0
        0 0 0 0 0 0
        0 0 0 0 0 0.0199082
        0.0392751 0.0575725 0.074301 0.0890042 0.101281 0.110796
        0.117289 0.120584 0.120589 0.117305 0.110821 0.101314
        0.0890413 0.074339 0.0576075 0.0393029 0.0199242 0
        0 0.0392751 0.0774825 0.11358 0.146582 0.175588
        0.199808 0.218579 0.231389 0.237888 0.237899 0.23142
        0.218628 0.199871 0.175661 0.146656 0.113648 0.0775365
        0.0393064 0 0 0.0575725 0.11358 0.166493
        0.21487 0.25739 0.292892 0.320408 0.339186 0.348713
        0.348729 0.339232 0.32048 0.292985 0.257495 0.214978
        0.166592 0.113658 0.0576178 0 0 0.074301
        0.146582 0.21487 0.277304 0.332178 0.377995 0.413506
        0.43774 0.450035 0.450055 0.437798 0.413598 0.378113
        0.332311 0.277441 0.214996 0.146682 0.0743589 0
        0 0.0890042 0.175588 0.25739 0.332178 0.397911
        0.452795 0.495332 0.524361 0.539089 0.539112 0.52443
        0.495441 0.452934 0.398069 0.33234 0.257539 0.175707
        0.0890727 0 0 0.101281 0.199808 0.292892
        0.377995 0.452795 0.515249 0.563653 0.596685 0.613444
        0.613471 0.596763 0.563775 0.515406 0.452973 0.378178
        0.29306 0.199941 0.101358 0 0 0.110796
        0.218579 0.320408 0.413506 0.495332 0.563653 0.616604
        0.652739 0.671072 0.671101 0.652823 0.616736 0.563822
        0.495524 0.413703 0.32059 0.218723 0.110879 0
        0 0.117289 0.231389 0.339186 0.43774 0.524361
        0.596685 0.652739 0.690992 0.710399 0.710429 0.69108
        0.652878 0.596863 0.524562 0.437946 0.339376 0.23154
        0.117377 0 0 0.120584 0.237888 0.348713
        0.450035 0.539089 0.613444 0.671072 0.710399 0.73035
        0.730381 0.710488 0.671213 0.613625 0.539293 0.450245
        0.348906 0.238041 0.120673 0 0 0.120589
        0.237899 0.348729 0.450055 0.539112 0.613471 0.671101
        0.710429 0.730381 0.730411 0.710517 0.67124 0.613649
        0.539314 0.450262 0.34892 0.23805 0.120677 0
        0 0.117305 0.23142 0.339232 0.437798 0.52443
        0.596763 0.652823 0.69108 0.710488 0.710517 0.691164
        0.652957 0.596934 0.524624 0.437997 0.339415 0.231566
        0.11739 0 0 0.110821 0.218628 0.32048
        0.413598 0.495441 0.563775 0.616736 0.652878 0.671213
        0.67124 0.652957 0.616861 0.563935 0.495622 0.413784
        0.320652 0.218764 0.1109 0 0 0.101314
        0.199871 0.292985 0.378113 0.452934 0.515406 0.563822
        0.596863 0.613625 0.613649 0.596934 0.563935 0.51555
        0.453098 0.378282 0.29314 0.199994 0.101385 0
        0 0.0890413 0.175661 0.257495 0.332311 0.398069
        0.452973 0.495524 0.524562 0.539293 0.539314 0.524624
        0.495622 0.453098 0.398211 0.332458 0.257629 0.175767
        0.0891032 0 0 0.074339 0.146656 0.214978
        0.277441 0.33234 0.378178 0.413703 0.437946 0.450245
        0.450262 0.437997 0.413784 0.378282 0.332458 0.277561
        0.215089 0.146744 0.0743901 0 0 0.0576075
        0.113648 0.166592 0.214996 0.257539 0.29306 0.32059
        0.339376 0.348906 0.34892 0.339415 0.320652 0.29314
        0.257629 0.215089 0.166677 0.113715 0.0576466 0
        0 0.0393029 0.0775365 0.113658 0.146682 0.175707
        0.199941 0.218723 0.23154 0.238041 0.23805 0.231566
        0.218764 0.199994 0.175767 0.146744 0.113715 0.0775821
        0.0393293 0 0 0.0199242 0.0393064 0.0576178
        0.0743589 0.0890727 0.101358 0.110879 0.117377 0.120673
        0.120677 0.11739 0.1109 0.101385 0.0891032 0.0743901
        0.0576466 0.0393293 0.0199375 0 0 0
        0 0 0 0 0 0
        0 0 0 0 0 0
        0 0 0 0 0 0
        0 0 0 0 0 0
        0 0 0 0 0 0
        0 0 0 0 0 0
        0 0 0 0.0226542 0.0446925 0.0655137
        0.0845496 0.101281 0.115251 0.126078 0.133467 0.137216
        0.137222 0.133485 0.126107 0.115288 0.101323 0.0845924
        0.0655531 0.0447237 0.0226723 0 0 0.0446925
        0.08817 0.129246 0.1668 0.199808 0.227367 0.248727
        0.263305 0.2707 0.270712 0.26334 0.248783 0.227439
        0.199889 0.166884 0.129323 0.0882308 0.0447278 0
        0 0.0655137 0.129246 0.189458 0.244508 0.292892
        0.333291 0.364602 0.38597 0.396811 0.396829 0.386021
        0.364683 0.333395 0.29301 0.244629 0.18957 0.129334
        0.0655647 0 0 0.0845496 0.1668 0.244508
        0.315553 0.377995 0.430133 0.470541 0.498117 0.512108
        0.51213 0.498183 0.470644 0.430265 0.378146 0.315707
        0.24465 0.166913 0.0846147 0 0 0.101281
        0.199808 0.292892 0.377995 0.452795 0.515249 0.563653
        0.596685 0.613444 0.613471 0.596763 0.563775 0.515406
        0.452973 0.378178 0.29306 0.199941 0.101358 0
        0 0.115251 0.227367 0.333291 0.430133 0.515249
        0.586317 0.641397 0.678985 0.698055 0.698085 0.679072
        0.641534 0.586493 0.515449 0.430338 0.33348 0.227517
        0.115338 0 0 0.126078 0.248727 0.364602
        0.470541 0.563653 0.641397 0.701651 0.74277 0.763631
        0.763663 0.742864 0.701799 0.641587 0.563869 0.470763
        0.364807 0.248889 0.126172 0 0 0.133467
        0.263305 0.38597 0.498117 0.596685 0.678985 0.74277
        0.786298 0.808382 0.808415 0.786397 0.742926 0.679185
        0.596912 0.498349 0.386184 0.263474 0.133565 0
        0 0.137216 0.2707 0.396811 0.512108 0.613444
        0.698055 0.763631 0.808382 0.831085 0.831119 0.808482
        0.763789 0.698258 0.613674 0.512344 0.397028 0.270872
        0.137316 0 0 0.137222 0.270712 0.396829
        0.51213 0.613471 0.698085 0.763663 0.808415 0.831119
        0.831153 0.808514 0.76382 0.698285 0.613698 0.512363
        0.397043 0.270883 0.137321 0 0 0.133485
        0.26334 0.386021 0.498183 0.596763 0.679072 0.742864
        0.786397 0.808482 0.808514 0.786492 0.743014 0.679265
        0.596982 0.498407 0.386228 0.263504 0.13358 0
        0 0.126107 0.248783 0.364683 0.470644 0.563775
        0.641534 0.701799 0.742926 0.763789 0.76382 0.743014
        0.70194 0.641714 0.563979 0.470854 0.364876 0.248936
        0.126195 0 0 0.115288 0.227439 0.333395
        0.430265 0.515406 0.586493 0.641587 0.679185 0.698258
        0.698285 0.679265 0.641714 0.586656 0.51559 0.430454
        0.33357 0.227577 0.115368 0 0 0.101323
        0.199889 0.29301 0.378146 0.452973 0.515449 0.563869
        0.596912 0.613674 0.613698 0.596982 0.563979 0.51559
        0.453133 0.37831 0.293162 0.200009 0.101392 0
        0 0.0845924 0.166884 0.244629 0.315707 0.378178
        0.430338 0.470763 0.498349 0.512344 0.512363 0.498407
        0.470854 0.430454 0.37831 0.315842 0.244754 0.166983
        0.0846498 0 0 0.0655531 0.129323 0.18957
        0.24465 0.29306 0.33348 0.364807 0.386184 0.397028
        0.397043 0.386228 0.364876 0.33357 0.293162 0.244754
        0.189665 0.129399 0.0655971 0 0 0.0447237
        0.0882308 0.129334 0.166913 0.199941 0.227517 0.248889
        0.263474 0.270872 0.270883 0.263504 0.248936 0.227577
        0.200009 0.166983 0.129399 0.088282 0.0447534 0
        0 0.0226723 0.0447278 0.0655647 0.0846147 0.101358
        0.115338 0.126172 0.133565 0.137316 0.137321 0.13358
        0.126195 0.115368 0.101392 0.0846498 0.0655971 0.0447534
        0.0226872 0 0 0 0 0
        0 0 0 0 0 0
        0 0 0 0 0 0
        0 0 0 0 0 0
        0 0 0 0 0 0
        0 0 0 0 0 0
        0 0 0 0 0 0
        0 0.0247826 0.0488913 0.0716686 0.0924928 0.110796
        0.126078 0.137922 0.146006 0.150107 0.150113 0.146025
        0.137953 0.126118 0.110841 0.092539 0.0717111 0.0489251
        0.0248021 0 0 0.0488913 0.0964533 0.141388
        0.18247 0.218579 0.248727 0.272094 0.28804 0.296131
        0.296144 0.288079 0.272155 0.248805 0.218667 0.182561
        0.141471 0.0965191 0.0489294 0 0 0.0716686
        0.141388 0.207257 0.267478 0.320408 0.364602 0.398854
        0.422229 0.434089 0.434108 0.422285 0.398942 0.364715
        0.320536 0.267609 0.207378 0.141484 0.0717237 0
        0 0.0924928 0.18247 0.267478 0.345197 0.413506
        0.470541 0.514745 0.544911 0.560216 0.56024 0.544982
        0.514857 0.470684 0.413669 0.345364 0.267632 0.182592
        0.0925632 0 0 0.110796 0.218579 0.320408
        0.413506 0.495332 0.563653 0.616604 0.652739 0.671072
        0.671101 0.652823 0.616736 0.563822 0.495524 0.413703
        0.32059 0.218723 0.110879 0 0 0.126078
        0.248727 0.364602 0.470541 0.563653 0.641397 0.701651
        0.74277 0.763631 0.763663 0.742864 0.701799 0.641587
        0.563869 0.470763 0.364807 0.248889 0.126172 0
        0 0.137922 0.272094 0.398854 0.514745 0.616604
        0.701651 0.767565 0.812546 0.835367 0.835402 0.812648
        0.767726 0.701857 0.616838 0.514985 0.399075 0.272269
        0.138024 0 0 0.146006 0.28804 0.422229
        0.544911 0.652739 0.74277 0.812546 0.860164 0.884321
        0.884357 0.86027 0.812715 0.742986 0.652984 0.545162
        0.42246 0.288224 0.146112 0 0 0.150107
        0.296131 0.434089 0.560216 0.671072 0.763631 0.835367
        0.884321 0.909156 0.909193 0.884429 0.835538 0.76385
        0.671321 0.560471 0.434323 0.296317 0.150215 0
        0 0.150113 0.296144 0.434108 0.56024 0.671101
        0.763663 0.835402 0.884357 0.909193 0.90923 0.884464
        0.835571 0.76388 0.671347 0.560492 0.43434 0.296328
        0.15022 0 0 0.146025 0.288079 0.422285
        0.544982 0.652823 0.742864 0.812648 0.86027 0.884429
        0.884464 0.860373 0.812811 0.743073 0.653059 0.545225
        0.422508 0.288256 0.146128 0 0 0.137953
        0.272155 0.398942 0.514857 0.616736 0.701799 0.767726
        0.812715 0.835538 0.835571 0.812811 0.767877 0.701994
        0.616957 0.515083 0.399151 0.27232 0.138049 0
        0 0.126118 0.248805 0.364715 0.470684 0.563822
        0.641587 0.701857 0.742986 0.76385 0.76388 0.743073
        0.701994 0.641763 0.564022 0.470889 0.364903 0.248955
        0.126205 0 0 0.110841 0.218667 0.320536
        0.413669 0.495524 0.563869 0.616838 0.652984 0.671321
        0.671347 0.653059 0.616957 0.564022 0.495698 0.413846
        0.320699 0.218796 0.110916 0 0 0.092539
        0.182561 0.267609 0.345364 0.413703 0.470763 0.514985
        0.545162 0.560471 0.560492 0.545225 0.515083 0.470889
        0.413846 0.34551 0.267744 0.182668 0.0926012 0
        0 0.0717111 0.141471 0.207378 0.267632 0.32059
        0.364807 0.399075 0.42246 0.434323 0.43434 0.422508
        0.399151 0.364903 0.320699 0.267744 0.207481 0.141553
        0.0717587 0 0 0.0489251 0.0965191 0.141484
        0.182592 0.218723 0.248889 0.272269 0.288224 0.296317
        0.296328 0.288256 0.27232 0.248955 0.218796 0.182668
        0.141553 0.0965745 0.0489572 0 0 0.0248021
        0.0489294 0.0717237 0.0925632 0.110879 0.126172 0.138024
        0.146112 0.150215 0.15022 0.146128 0.138049 0.126205
        0.110916 0.0926012 0.0717587 0.0489572 0.0248182 0
        0 0 0 0 0 0
        0 0 0 0 0 0
        0 0 0 0 0 0
        0 0 0 0 0 0
        0 0 0 0 0 0
        0 0 0 0 0 0
        0 0 0 0 0 0.0262351
        0.0517568 0.075869 0.0979136 0.117289 0.133467 0.146006
        0.154562 0.158904 0.158911 0.154583 0.146038 0.133509
        0.117336 0.097962 0.0759135 0.0517921 0.0262555 0
        0 0.0517568 0.102106 0.149675 0.193165 0.231389
        0.263305 0.28804 0.304921 0.313485 0.313499 0.304961
        0.288104 0.263386 0.231481 0.193259 0.149762 0.102175
        0.0517967 0 0 0.075869 0.149675 0.219404
        0.283154 0.339186 0.38597 0.422229 0.446974 0.459528
        0.459548 0.447032 0.422321 0.386088 0.339319 0.283291
        0.21953 0.149775 0.0759267 0 0 0.0979136
        0.193165 0.283154 0.365428 0.43774 0.498117 0.544911
        0.576845 0.593047 0.593072 0.57692 0.545028 0.498267
        0.43791 0.365602 0.283315 0.193292 0.0979873 0
        0 0.117289 0.231389 0.339186 0.43774 0.524361
        0.596685 0.652739 0.690992 0.710399 0.710429 0.69108
        0.652878 0.596863 0.524562 0.437946 0.339376 0.23154
        0.117377 0 0 0.133467 0.263305 0.38597
        0.498117 0.596685 0.678985 0.74277 0.786298 0.808382
        0.808415 0.786397 0.742926 0.679185 0.596912 0.498349
        0.386184 0.263474 0.133565 0 0 0.146006
        0.28804 0.422229 0.544911 0.652739 0.74277 0.812546
        0.860164 0.884321 0.884357 0.86027 0.812715 0.742986
        0.652984 0.545162 0.42246 0.288224 0.146112 0
        0 0.154562 0.304921 0.446974 0.576845 0.690992
        0.786298 0.860164 0.910571 0.936143 0.936181 0.910682
        0.86034 0.786524 0.691248 0.577108 0.447216 0.305113
        0.154673 0 0 0.158904 0.313485 0.459528
        0.593047 0.710399 0.808382 0.884321 0.936143 0.962433
        0.962472 0.936257 0.8845 0.808611 0.710659 0.593314
        0.459774 0.31368 0.159017 0 0 0.158911
        0.313499 0.459548 0.593072 0.710429 0.808415 0.884357
        0.936181 0.962472 0.962511 0.936294 0.884534 0.808642
        0.710686 0.593336 0.459791 0.313692 0.159022 0
        0 0.154583 0.304961 0.447032 0.57692 0.69108
        0.786397 0.86027 0.910682 0.936257 0.936294 0.91079
        0.86044 0.786615 0.691327 0.577173 0.447266 0.305146
        0.15469 0 0 0.146038 0.288104 0.422321
        0.545028 0.652878 0.742926 0.812715 0.86034 0.8845
        0.884534 0.86044 0.812873 0.743129 0.653109 0.545265
        0.422539 0.288277 0.146138 0 0 0.133509
        0.263386 0.386088 0.498267 0.596863 0.679185 0.742986
        0.786524 0.808611 0.808642 0.786615 0.743129 0.679369
        0.597072 0.498481 0.386285 0.263542 0.133599 0
        0 0.117336 0.231481 0.339319 0.43791 0.524562
        0.596912 0.652984 0.691248 0.710659 0.710686 0.691327
        0.653109 0.597072 0.524744 0.438096 0.339491 0.231617