<?xml version="1.0"?>
<VTKFile type="ImageData" version="0.1" byte_order="LittleEndian" header_type="UInt32" compressor="vtkZLibDataCompressor">
  <ImageData WholeExtent="0 19 0 19 0 19" Origin="0 0 0" Spacing="1 1 1">
  <Piece Extent="0 19 0 19 0 19">
    <PointData>
      <DataArray type="Float64" Name="Datas" format="ascii" RangeMin="120.67" RangeMax="120.677">
        120.67 120.67 120.67 120.67 120.67 120.67
        120.67 120.67 120.67 120.67 120.67 120.67
        120.67 120.67 120.67 120.67 120.67 120.67
        120.67 120.67 120.67 120.67 120.67 120.67
        120.67 120.67 120.67 120.67 120.67 120.67
        120.67 120.67 120.67 120.67 120.67 120.67
        120.67 120.67 120.67 120.67 120.67 120.67
        120.67 120.67 120.67 120.67 120.67 120.67
        120.67 120.67 120.67 120.67 120.67 120.67
        120.67 120.67 120.67 120.67 120.67 120.67
        120.67 120.67 120.67 120.67 120.67 120.67
        120.67 120.67 120.67 120.67 120.67 120.67
        120.67 120.67 120.67 120.67 120.67 120.67
        120.67 120.67 120.67 120.67 120.67 120.67
        120.67 120.67 120.67 120.67 120.67 120.67
        120.67 120.67 120.67 120.67 120.67 120.67
        120.67 120.67 120.67 120.67 120.67 120.67
        120.67 120.67 120.67 120.67 120.67 120.67
        120.67 120.67 120.67 120.67 120.67 120.67
        120.67 120.67 120.67 120.67 120.67 120.67
        120.67 120.67 120.67 120.67 120.67 120.67
        120.67 120.67 120.67 120.67 120.67 120.67
        120.67 120.67 120.67 120.67 120.67 120.67
        120.67 120.67 120.67 120.67 120.67 120.67
        120.67 120.67 120.67 120.67 120.67 120.67
        120.67 120.67 120.67 120.67 120.67 120.67
        120.67 120.67 120.67 120.67 120.67 120.67
        120.67 120.67 120.67 120.67 120.67 120.67
        120.67 120.67 120.67 120.67 120.67 120.67
        120.67 120.67 120.67 120.67 120.67 120.67
        120.67 120.67 120.67 120.67 120.67 120.67
        120.67 120.67 120.67 120.67 120.67 120.67
        120.67 120.67 120.67 120.67 120.67 120.67
        120.67 120.67 120.67 120.67 120.67 120.67
        120.67 120.67 120.67 120.67 120.67 120.67
        120.67 120.67 120.67 120.67 120.67 120.67
        120.67 120.67 120.67 120.67 120.67 120.67
        120.67 120.67 120.67 120.67 120.67 120.67
        120.67 120.67 120.67 120.67 120.67 120.67
        120.67 120.67 120.67 120.67 120.67 120.67
        120.67 120.67 120.67 120.67 120.67 120.67
        120.67 120.67 120.67 120.67 120.67 120.67
        120.67 120.67 120.67 120.67 120.67 120.67
        120.67 120.67 120.67 120.67 120.67 120.67
        120.67 120.67 120.67 120.67 120.67 120.67
        120.67 120.67 120.67 120.67 120.67 120.67
        120.67 120.67 120.67 120.67 120.67 120.67
        120.67 120.67 120.67 120.67 120.67 120.67
        120.67 120.67 120.67 120.67 120.67 120.67
        120.67 120.67 120.67 120.67 120.67 120.67
        120.67 120.67 120.67 120.67 120.67 120.67
        120.67 120.67 120.67 120.67 120.67 120.67
        120.67 120.67 120.67 120.67 120.67 120.67
        120.67 120.67 120.67 120.67 120.67 120.67
        120.67 120.67 120.67 120.67 120.67 120.67
        120.67 120.67 120.67 120.67 120.67 120.67
        120.67 120.67 120.67 120.67 120.67 120.67
        120.67 120.67 120.67 120.67 120.67 120.67
        120.67 120.67 120.67 120.67 120.67 120.67
        120.67 120.67 120.67 120.67 120.67 120.67
        120.67 120.67 120.67 120.67 120.67 120.67
        120.67 120.67 120.67 120.67 120.67 120.67
        120.67 120.67 120.67 120.67 120.67 120.67
        120.67 120.67 120.67 120.67 120.67 120.67
        120.67 120.67 120.67 120.67 120.67 120.67
        120.67 120.67 120.67 120.67 120.67 120.67
        120.67 120.67 120.67 120.67 120.67 120.67
        120.67 120.67 120.67 120.67 120.67 120.67
        120.67 120.67 120.67 120.67 120.67 120.67
        120.67 120.67 120.67 120.67 120.67 120.67
        120.67 120.67 120.67 120.67 120.67 120.67
        120.67 120.67 120.67 120.67 120.67 120.67
        120.67 120.67 120.67 120.67 120.67 120.67
        120.67 120.67 120.67 120.67 120.67 120.67
        120.67 120.67 120.671 120.671 120.671 120.671
        120.671 120.671 120.671 120.671 120.67 120.67
        120.67 120.67 120.67 120.67 120.67 120.67
        120.67 120.67 120.671 120.671 120.671 120.671
        120.671 120.671 120.671 120.671 120.671 120.671
        120.671 120.671 120.67 120.67 120.67 120.67
        120.67 120.67 120.67 120.671 120.671 120.671
        120.671 120.671 120.671 120.671 120.671 120.671
        120.671 120.671 120.671 120.671 120.671 120.67
        120.67 120.67 120.67 120.67 120.67 120.671
        120.671 120.671 120.671 120.671 120.671 120.671
        120.671 120.671 120.671 120.671 120.671 120.671
        120.671 120.67 120.67 120.67 120.67 120.67
        120.671 120.671 120.671 120.671 120.671 120.671
        120.671 120.671 120.671 120.671 120.671 120.671
        120.671 120.671 120.671 120.671 120.67 120.67
        120.67 120.67 120.671 120.671 120.671 120.671
        120.671 120.671 120.671 120.671 120.671 120.671
        120.671 120.671 120.671 120.671 120.671 120.671
        120.67 120.67 120.67 120.67 120.671 120.671
        120.671 120.671 120.671 120.671 120.671 120.671
        120.671 120.671 120.671 120.671 120.671 120.671
        120.671 120.671 120.67 120.67 120.67 120.67
        120.671 120.671 120.671 120.671 120.671 120.671
        120.671 120.671 120.671 120.671 120.671 120.671
        120.671 120.671 120.671 120.671 120.67 120.67
        120.67 120.67 120.671 120.671 120.671 120.671
        120.671 120.671 120.671 120.671 120.671 120.671
        120.671 120.671 120.671 120.671 120.671 120.671
        120.67 120.67 120.67 120.67 120.671 120.671
        120.671 120.671 120.671 120.671 120.671 120.671
        120.671 120.671 120.671 120.671 120.671 120.671
        120.671 120.671 120.67 120.67 120.67 120.67
        120.671 120.671 120.671 120.671 120.671 120.671
        120.671 120.671 120.671 120.671 120.671 120.671
        120.671 120.671 120.671 120.671 120.67 120.67
        120.67 120.67 120.671 120.671 120.671 120.671
        120.671 120.671 120.671 120.671 120.671 120.671
        120.671 120.671 120.671 120.671 120.671 120.671
        120.67 120.67 120.67 120.67 120.67 120.671
        120.671 120.671 120.671 120.671 120.671 120.671
        120.671 120.671 120.671 120.671 120.671 120.671
        120.671 120.67 120.67 120.67 120.67 120.67
        120.67 120.671 120.671 120.671 120.671 120.671
        120.671 120.671 120.671 120.671 120.671 120.671
        120.671 120.671 120.671 120.67 120.67 120.67
        120.67 120.67 120.67 120.67 120.671 120.671
        120.671 120.671 120.671 120.671 120.671 120.671
        120.671 120.671 120.671 120.671 120.67 120.67
        120.67 120.67 120.67 120.67 120.67 120.67
        120.67 120.67 120.671 120.671 120.671 120.671
        120.671 120.671 120.671 120.671 120.67 120.67
        120.67 120.67 120.67 120.67 120.67 120.67
        120.67 120.67 120.67 120.67 120.67 120.67
        120.67 120.67 120.67 120.67 120.67 120.67
        120.67 120.67 120.67 120.67 120.67 120.67
        120.67 120.67 120.67 120.67 120.67 120.67
        120.67 120.67 120.67 120.67 120.67 120.67
        120.67 120.67 120.67 120.67 120.67 120.67
        120.67 120.67 120.67 120.67 120.67 120.67
        120.67 120.67 120.67 120.67 120.67 120.67
        120.67 120.67 120.67 120.67 120.67 120.67
        120.67 120.67 120.67 120.67 120.67 120.67
        120.67 120.67 120.67 120.67 120.671 120.671
        120.671 120.671 120.671 120.671 120.671 120.671
        120.67 120.67 120.67 120.67 120.67 120.67
        120.67 120.67 120.67 120.671 120.671 120.671
        120.671 120.671 120.671 120.671 120.671 120.671
        120.671 120.671 120.671 120.671 120.671 120.67
        120.67 120.67 120.67 120.67 120.671 120.671
        120.671 120.671 120.671 120.671 120.671 120.671
        120.671 120.671 120.671 120.671 120.671 120.671
        120.671 120.671 120.67 120.67 120.67 120.67
        120.671 120.671 120.671 120.671 120.671 120.671
        120.671 120.672 120.672 120.671 120.671 120.671
        120.671 120.671 120.671 120.671 120.67 120.67
        120.67 120.67 120.671 120.671 120.671 120.671
        120.672 120.672 120.672 120.672 120.672 120.672
        120.672 120.672 120.671 120.671 120.671 120.671
        120.67 120.67 120.67 120.671 120.671 120.671
        120.671 120.672 120.672 120.672 120.672 120.672
        120.672 120.672 120.672 120.672 120.672 120.671
        120.671 120.671 120.671 120.67 120.67 120.671
        120.671 120.671 120.671 120.672 120.672 120.672
        120.672 120.672 120.672 120.672 120.672 120.672
        120.672 120.671 120.671 120.671 120.671 120.67
        120.67 120.671 120.671 120.671 120.671 120.672
        120.672 120.672 120.672 120.672 120.672 120.672
        120.672 120.672 120.672 120.671 120.671 120.671
        120.671 120.67 120.67 120.671 120.671 120.671
        120.672 120.672 120.672 120.672 120.672 120.672
        120.672 120.672 120.672 120.672 120.672 120.672
        120.671 120.671 120.671 120.67 120.67 120.671
        120.671 120.671 120.672 120.672 120.672 120.672
        120.672 120.672 120.672 120.672 120.672 120.672
        120.672 120.672 120.671 120.671 120.671 120.67
        120.67 120.671 120.671 120.671 120.671 120.672
        120.672 120.672 120.672 120.672 120.672 120.672
        120.672 120.672 120.672 120.671 120.671 120.671
        120.671 120.67 120.67 120.671 120.671 120.671
        120.671 120.672 120.672 120.672 120.672 120.672
        120.672 120.672 120.672 120.672 120.672 120.671
        120.671 120.671 120.671 120.67 120.67 120.671
        120.671 120.671 120.671 120.672 120.672 120.672
        120.672 120.672 120.672 120.672 120.672 120.672
        120.672 120.671 120.671 120.671 120.671 120.67
        120.67 120.67 120.671 120.671 120.671 120.671
        120.672 120.672 120.672 120.672 120.672 120.672
        120.672 120.672 120.671 120.671 120.671 120.671
        120.67 120.67 120.67 120.67 120.671 120.671
        120.671 120.671 120.671 120.671 120.671 120.672
        120.672 120.671 120.671 120.671 120.671 120.671
        120.671 120.671 120.67 120.67 120.67 120.67
        120.671 120.671 120.671 120.671 120.671 120.671
        120.671 120.671 120.671 120.671 120.671 120.671
        120.671 120.671 120.671 120.671 120.67 120.67
        120.67 120.67 120.67 120.671 120.671 120.671
        120.671 120.671 120.671 120.671 120.671 120.671
        120.671 120.671 120.671 120.671 120.671 120.67
        120.67 120.67 120.67 120.67 120.67 120.67
        120.67 120.67 120.671 120.671 120.671 120.671
        120.671 120.671 120.671 120.671 120.67 120.67
        120.67 120.67 120.67 120.67 120.67 120.67
        120.67 120.67 120.67 120.67 120.67 120.67
        120.67 120.67 120.67 120.67 120.67 120.67
        120.67 120.67 120.67 120.67 120.67 120.67
        120.67 120.67 120.67 120.67 120.67 120.67
        120.67 120.67 120.67 120.67 120.67 120.67
        120.67 120.67 120.67 120.67 120.67 120.67
        120.67 120.67 120.67 120.67 120.67 120.67
        120.671 120.671 120.671 120.671 120.671 120.671
        120.671 120.671 120.671 120.671 120.671 120.671
        120.67 120.67 120.67 120.67 120.67 120.67
        120.671 120.671 120.671 120.671 120.671 120.671
        120.671 120.671 120.671 120.671 120.671 120.671
        120.671 120.671 120.671 120.671 120.67 120.67
        120.67 120.67 120.671 120.671 120.671 120.671
        120.671 120.672 120.672 120.672 120.672 120.672
        120.672 120.671 120.671 120.671 120.671 120.671
        120.67 120.67 120.67 120.671 120.671 120.671
        120.671 120.672 120.672 120.672 120.672 120.672
        120.672 120.672 120.672 120.672 120.672 120.671
        120.671 120.671 120.671 120.67 120.67 120.671
        120.671 120.671 120.672 120.672 120.672 120.672
        120.672 120.673 120.673 120.672 120.672 120.672
        120.672 120.672 120.671 120.671 120.671 120.67
        120.67 120.671 120.671 120.671 120.672 120.672
        120.672 120.673 120.673 120.673 120.673 120.673
        120.673 120.672 120.672 120.672 120.671 120.671
        120.671 120.67 120.67 120.671 120.671 120.672
        120.672 120.672 120.673 120.673 120.673 120.673
        120.673 120.673 120.673 120.673 120.672 120.672
        120.672 120.671 120.671 120.67 120.67 120.671
        120.671 120.672 120.672 120.672 120.673 120.673
        120.673 120.673 120.673 120.673 120.673 120.673
        120.672 120.672 120.672 120.671 120.671 120.67
        120.67 120.671 120.671 120.672 120.672 120.673
        120.673 120.673 120.673 120.673 120.673 120.673
        120.673 120.673 120.673 120.672 120.672 120.671
        120.671 120.67 120.67 120.671 120.671 120.672
        120.672 120.673 120.673 120.673 120.673 120.673
        120.673 120.673 120.673 120.673 120.673 120.672
        120.672 120.671 120.671 120.67 120.67 120.671
        120.671 120.672 120.672 120.672 120.673 120.673
        120.673 120.673 120.673 120.673 120.673 120.673
        120.672 120.672 120.672 120.671 120.671 120.67
        120.67 120.671 120.671 120.672 120.672 120.672
        120.673 120.673 120.673 120.673 120.673 120.673
        120.673 120.673 120.672 120.672 120.672 120.671
        120.671 120.67 120.67 120.671 120.671 120.671
        120.672 120.672 120.672 120.673 120.673 120.673
        120.673 120.673 120.673 120.672 120.672 120.672
        120.671 120.671 120.671 120.67 120.67 120.671
        120.671 120.671 120.672 120.672 120.672 120.672
        120.672 120.673 120.673 120.672 120.672 120.672
        120.672 120.672 120.671 120.671 120.671 120.67
        120.67 120.671 120.671 120.671 120.671 120.672
        120.672 120.672 120.672 120.672 120.672 120.672
        120.672 120.672 120.672 120.671 120.671 120.671
        120.671 120.67 120.67 120.67 120.671 120.671
        120.671 120.671 120.671 120.672 120.672 120.672
        120.672 120.672 120.672 120.671 120.671 120.671
        120.671 120.671 120.67 120.67 120.67 120.67
        120.671 120.671 120.671 120.671 120.671 120.671
        120.671 120.671 120.671 120.671 120.671 120.671
        120.671 120.671 120.671 120.671 120.67 120.67
        120.67 120.67 120.67 120.67 120.671 120.671
        120.671 120.671 120.671 120.671 120.671 120.671
        120.671 120.671 120.671 120.671 120.67 120.67
        120.67 120.67 120.67 120.67 120.67 120.67
        120.67 120.67 120.67 120.67 120.67 120.67
        120.67 120.67 120.67 120.67 120.67 120.67
        120.67 120.67 120.67 120.67 120.67 120.67
        120.67 120.67 120.67 120.67 120.67 120.67
        120.67 120.67 120.67 120.67 120.67 120.67
        120.67 120.67 120.67 120.67 120.67 120.67
        120.67 120.67 120.67 120.671 120.671 120.671
        120.671 120.671 120.671 120.671 120.671 120.671
        120.671 120.671 120.671 120.671 120.671 120.67
        120.67 120.67 120.67 120.67 120.671 120.671
        120.671 120.671 120.671 120.671 120.671 120.672
        120.672 120.671 120.671 120.671 120.671 120.671
        120.671 120.671 120.67 120.67 120.67 120.671
        120.671 120.671 120.671 120.672 120.672 120.672
        120.672 120.672 120.672 120.672 120.672 120.672
        120.672 120.671 120.671 120.671 120.671 120.67
        120.67 120.671 120.671 120.671 120.672 120.672
        120.672 120.672 120.673 120.673 120.673 120.673
        120.672 120.672 120.672 120.672 120.671 120.671
        120.671 120.67 120.67 120.671 120.671 120.672
        120.672 120.672 120.673 120.673 120.673 120.673
        120.673 120.673 120.673 120.673 120.672 120.672
        120.672 120.671 120.671 120.67 120.67 120.671
        120.671 120.672 120.672 120.673 120.673 120.673
        120.673 120.674 120.674 120.673 120.673 120.673
        120.673 120.672 120.672 120.671 120.671 120.67
        120.67 120.671 120.671 120.672 120.672 120.673
        120.673 120.674 120.674 120.674 120.674 120.674
        120.674 120.673 120.673 120.672 120.672 120.671
        120.671 120.67 120.67 120.671 120.671 120.672
        120.673 120.673 120.673 120.674 120.674 120.674
        120.674 120.674 120.674 120.673 120.673 120.673
        120.672 120.671 120.671 120.67 120.67 120.671
        120.672 120.672 120.673 120.673 120.674 120.674
        120.674 120.674 120.674 120.674 120.674 120.674
        120.673 120.673 120.672 120.672 120.671 120.67
        120.67 120.671 120.672 120.672 120.673 120.673
        120.674 120.674 120.674 120.674 120.674 120.674
        120.674 120.674 120.673 120.673 120.672 120.672
        120.671 120.67 120.67 120.671 120.671 120.672
        120.673 120.673 120.673 120.674 120.674 120.674
        120.674 120.674 120.674 120.673 120.673 120.673
        120.672 120.671 120.671 120.67 120.67 120.671
        120.671 120.672 120.672 120.673 120.673 120.674
        120.674 120.674 120.674 120.674 120.674 120.673
        120.673 120.672 120.672 120.671 120.671 120.67
        120.67 120.671 120.671 120.672 120.672 120.673
        120.673 120.673 120.673 120.674 120.674 120.673
        120.673 120.673 120.673 120.672 120.672 120.671
        120.671 120.67 120.67 120.671 120.671 120.672
        120.672 120.672 120.673 120.673 120.673 120.673
        120.673 120.673 120.673 120.673 120.672 120.672
        120.672 120.671 120.671 120.67 120.67 120.671
        120.671 120.671 120.672 120.672 120.672 120.672
        120.673 120.673 120.673 120.673 120.672 120.672
        120.672 120.672 120.671 120.671 120.671 120.67
        120.67 120.671 120.671 120.671 120.671 120.672
        120.672 120.672 120.672 120.672 120.672 120.672
        120.672 120.672 120.672 120.671 120.671 120.671
        120.671 120.67 120.67 120.67 120.671 120.671
        120.671 120.671 120.671 120.671 120.671 120.672
        120.672 120.671 120.671 120.671 120.671 120.671
        120.671 120.671 120.67 120.67 120.67 120.67
        120.67 120.671 120.671 120.671 120.671 120.671
        120.671 120.671 120.671 120.671 120.671 120.671
        120.671 120.671 120.671 120.67 120.67 120.67
        120.67 120.67 120.67 120.67 120.67 120.67
        120.67 120.67 120.67 120.67 120.67 120.67
        120.67 120.67 120.67 120.67 120.67 120.67
        120.67 120.67 120.67 120.67 120.67 120.67
        120.67 120.67 120.67 120.67 120.67 120.67
        120.67 120.67 120.67 120.67 120.67 120.67
        120.67 120.67 120.67 120.67 120.67 120.67
        120.67 120.671 120.671 120.671 120.671 120.671
        120.671 120.671 120.671 120.671 120.671 120.671
        120.671 120.671 120.671 120.67 120.67 120.67
        120.67 120.67 120.671 120.671 120.671 120.671
        120.672 120.672 120.672 120.672 120.672 120.672
        120.672 120.672 120.671 120.671 120.671 120.671
        120.67 120.67 120.67 120.671 120.671 120.671
        120.672 120.672 120.672 120.672 120.672 120.673
        120.673 120.672 120.672 120.672 120.672 120.672
        120.671 120.671 120.671 120.67 120.67 120.671
        120.671 120.672 120.672 120.672 120.673 120.673
        120.673 120.673 120.673 120.673 120.673 120.673
        120.672 120.672 120.672 120.671 120.671 120.67
        120.67 120.671 120.671 120.672 120.672 120.673
        120.673 120.673 120.674 120.674 120.674 120.674
        120.673 120.673 120.673 120.672 120.672 120.671
        120.671 120.67 120.67 120.671 120.672 120.672
        120.673 120.673 120.674 120.674 120.674 120.674
        120.674 120.674 120.674 120.674 120.673 120.673
        120.672 120.672 120.671 120.67 120.67 120.671
        120.672 120.672 120.673 120.673 120.674 120.674
        120.674 120.675 120.675 120.674 120.674 120.674
        120.673 120.673 120.672 120.672 120.671 120.67
        120.67 120.671 120.672 120.672 120.673 120.674
        120.674 120.674 120.675 120.675 120.675 120.675
        120.674 120.674 120.674 120.673 120.672 120.672
        120.671 120.67 120.67 120.671 120.672 120.673
        120.673 120.674 120.674 120.675 120.675 120.675
        120.675 120.675 120.675 120.674 120.674 120.673
        120.673 120.672 120.671 120.67 120.67 120.671
        120.672 120.673 120.673 120.674 120.674 120.675
        120.675 120.675 120.675 120.675 120.675 120.674
        120.674 120.673 120.673 120.672 120.671 120.67
        120.67 120.671 120.672 120.672 120.673 120.674
        120.674 120.674 120.675 120.675 120.675 120.675
        120.674 120.674 120.674 120.673 120.672 120.672
        120.671 120.67 120.67 120.671 120.672 120.672
        120.673 120.673 120.674 120.674 120.674 120.675
        120.675 120.674 120.674 120.674 120.673 120.673
        120.672 120.672 120.671 120.67 120.67 120.671
        120.672 120.672 120.673 120.673 120.674 120.674
        120.674 120.674 120.674 120.674 120.674 120.674
        120.673 120.673 120.672 120.672 120.671 120.67
        120.67 120.671 120.671 120.672 120.672 120.673
        120.673 120.673 120.674 120.674 120.674 120.674
        120.673 120.673 120.673 120.672 120.672 120.671
        120.671 120.67 120.67 120.671 120.671 120.672
        120.672 120.672 120.673 120.673 120.673 120.673
        120.673 120.673 120.673 120.673 120.672 120.672
        120.672 120.671 120.671 120.67 120.67 120.671
        120.671 120.671 120.672 120.672 120.672 120.672
        120.672 120.673 120.673 120.672 120.672 120.672
        120.672 120.672 120.671 120.671 120.671 120.67
        120.67 120.67 120.671 120.671 120.671 120.671
        120.672 120.672 120.672 120.672 120.672 120.672
        120.672 120.672 120.671 120.671 120.671 120.671
        120.67 120.67 120.67 120.67 120.67 120.671
        120.671 120.671 120.671 120.671 120.671 120.671
        120.671 120.671 120.671 120.671 120.671 120.671
        120.671 120.67 120.67 120.67 120.67 120.67
        120.67 120.67 120.67 120.67 120.67 120.67
        120.67 120.67 120.67 120.67 120.67 120.67
        120.67 120.67 120.67 120.67 120.67 120.67
        120.67 120.67 120.67 120.67 120.67 120.67
        120.67 120.67 120.67 120.67 120.67 120.67
        120.67 120.67 120.67 120.67 120.67 120.67
        120.67 120.67 120.67 120.67 120.671 120.671
        120.671 120.671 120.671 120.671 120.671 120.671
        120.671 120.671 120.671 120.671 120.671 120.671
        120.671 120.671 120.67 120.67 120.67 120.671
        120.671 120.671 120.671 120.672 120.672 120.672
        120.672 120.672 120.672 120.672 120.672 120.672
        120.672 120.671 120.671 120.671 120.671 120.67
        120.67 120.671 120.671 120.671 120.672 120.672
        120.672 120.673 120.673 120.673 120.673 120.673
        120.673 120.672 120.672 120.672 120.671 120.671
        120.671 120.67 120.67 120.671 120.671 120.672
        120.672 120.673 120.673 120.673 120.673 120.674
        120.674 120.673 120.673 120.673 120.673 120.672
        120.672 120.671 120.671 120.67 120.67 120.671
        120.672 120.672 120.673 120.673 120.674 120.674
        120.674 120.674 120.674 120.674 120.674 120.674
        120.673 120.673 120.672 120.672 120.671 120.67
        120.67 120.671 120.672 120.672 120.673 120.674
        120.674 120.674 120.675 120.675 120.675 120.675
        120.674 120.674 120.674 120.673 120.672 120.672
        120.671 120.67 120.67 120.671 120.672 120.673
        120.673 120.674 120.674 120.675 120.675 120.675
        120.675 120.675 120.675 120.674 120.674 120.673
        120.673 120.672 120.671 120.67 120.67 120.671
        120.672 120.673 120.673 120.674 120.675 120.675
        120.675 120.676 120.676 120.675 120.675 120.675
        120.674 120.673 120.673 120.672 120.671 120.67
        120.67 120.671 120.672 120.673 120.674 120.674
        120.675 120.675 120.676 120.676 120.676 120.676
        120.675 120.675 120.674 120.674 120.673 120.672
        120.671 120.67 120.67 120.671 120.672 120.673
        120.674 120.674 120.675 120.675 120.676 120.676
        120.676 120.676 120.675 120.675 120.674 120.674
        120.673 120.672 120.671 120.67 120.67 120.671
        120.672 120.673 120.673 120.674 120.675 120.675
        120.675 120.676 120.676 120.675 120.675 120.675
        120.674 120.673 120.673 120.672 120.671 120.67
        120.67 120.671 120.672 120.673 120.673 120.674
        120.674 120.675 120.675 120.675 120.675 120.675
        120.675 120.674 120.674 120.673 120.673 120.672
        120.671 120.67 120.67 120.671 120.672 120.672
        120.673 120.674 120.674 120.674 120.675 120.675
        120.675 120.675 120.674 120.674 120.674 120.673
        120.672 120.672 120.671 120.67 120.67 120.671
        120.672 120.672 120.673 120.673 120.674 120.674
        120.674 120.674 120.674 120.674 120.674 120.674
        120.673 120.673 120.672 120.672 120.671 120.67
        120.67 120.671 120.671 120.672 120.672 120.673
        120.673 120.673 120.673 120.674 120.674 120.673
        120.673 120.673 120.673 120.672 120.672 120.671
        120.671 120.67 120.67 120.671 120.671 120.671
        120.672 120.672 120.672 120.673 120.673 120.673
        120.673 120.673 120.673 120.672 120.672 120.672
        120.671 120.671 120.671 120.67 120.67 120.671
        120.671 120.671 120.671 120.672 120.672 120.672
        120.672 120.672 120.672 120.672 120.672 120.672
        120.672 120.671 120.671 120.671 120.671 120.67
        120.67 120.67 120.671 120.671 120.671 120.671
        120.671 120.671 120.671 120.671 120.671 120.671
        120.671 120.671 120.671 120.671 120.671 120.671
        120.67 120.67 120.67 120.67 120.67 120.67
        120.67 120.67 120.67 120.67 120.67 120.67
        120.67 120.67 120.67 120.67 120.67 120.67
        120.67 120.67 120.67 120.67 120.67 120.67
        120.67 120.67 120.67 120.67 120.67 120.67
        120.67 120.67 120.67 120.67 120.67 120.67
        120.67 120.67 120.67 120.67 120.67 120.67
        120.67 120.67 120.671 120.671 120.671 120.671
        120.671 120.671 120.671 120.671 120.671 120.671
        120.671 120.671 120.671 120.671 120.671 120.671
        120.67 120.67 120.67 120.671 120.671 120.671
        120.671 120.672 120.672 120.672 120.672 120.672
        120.672 120.672 120.672 120.672 120.672 120.671
        120.671 120.671 120.671 120.67 120.67 120.671
        120.671 120.672 120.672 120.672 120.673 120.673
        120.673 120.673 120.673 120.673 120.673 120.673
        120.672 120.672 120.672 120.671 120.671 120.67
        120.67 120.671 120.671 120.672 120.672 120.673
        120.673 120.674 120.674 120.674 120.674 120.674
        120.674 120.673 120.673 120.672 120.672 120.671
        120.671 120.67 120.67 120.671 120.672 120.672
        120.673 120.673 120.674 120.674 120.674 120.675
        120.675 120.674 120.674 120.674 120.673 120.673
        120.672 120.672 120.671 120.67 120.67 120.671
        120.672 120.673 120.673 120.674 120.674 120.675
        120.675 120.675 120.675 120.675 120.675 120.674
        120.674 120.673 120.673 120.672 120.671 120.67
        120.67 120.671 120.672 120.673 120.674 120.674
        120.675 120.675 120.676 120.676 120.676 120.676
        120.675 120.675 120.674 120.674 120.673 120.672
        120.671 120.67 120.67 120.671 120.672 120.673
        120.674 120.674 120.675 120.676 120.676 120.676
        120.676 120.676 120.676 120.675 120.674 120.674
        120.673 120.672 120.671 120.67 120.67 120.671
        120.672 120.673 120.674 120.675 120.675 120.676
        120.676 120.676 120.676 120.676 120.676 120.675
        120.675 120.674 120.673 120.672 120.671 120.67
        120.67 120.671 120.672 120.673 120.674 120.675
        120.675 120.676 120.676 120.676 120.676 120.676
        120.676 120.675 120.675 120.674 120.673 120.672
        120.671 120.67 120.67 120.671 120.672 120.673
        120.674 120.674 120.675 120.676 120.676 120.676
        120.676 120.676 120.676 120.675 120.674 120.674
        120.673 120.672 120.671 120.67 120.67 120.671
        120.672 120.673 120.674 120.674 120.675 120.675
        120.676 120.676 120.676 120.676 120.675 120.675
        120.674 120.674 120.673 120.672 120.671 120.67
        120.67 120.671 120.672 120.673 120.673 120.674
        120.674 120.675 120.675 120.675 120.675 120.675
        120.675 120.674 120.674 120.673 120.673 120.672
        120.671 120.67 120.67 120.671 120.672 120.672
        120.673 120.673 120.674 120.674 120.674 120.675
        120.675 120.674 120.674 120.674 120.673 120.673
        120.672 120.672 120.671 120.67 120.67 120.671
        120.671 120.672 120.672 120.673 120.673 120.674
        120.674 120.674 120.674 120.674 120.674 120.673
        120.673 120.672 120.672 120.671 120.671 120.67
        120.67 120.671 120.671 120.672 120.672 120.672
        120.673 120.673 120.673 120.673 120.673 120.673
        120.673 120.673 120.672 120.672 120.672 120.671
        120.671 120.67 120.67 120.671 120.671 120.671
        120.671 120.672 120.672 120.672 120.672 120.672
        120.672 120.672 120.672 120.672 120.672 120.671
        120.671 120.671 120.671 120.67 120.67 120.67
        120.671 120.671 120.671 120.671 120.671 120.671
        120.671 120.671 120.671 120.671 120.671 120.671
        120.671 120.671 120.671 120.671 120.67 120.67
        120.67 120.67 120.67 120.67 120.67 120.67
        120.67 120.67 120.67 120.67 120.67 120.67
        120.67 120.67 120.67 120.67 120.67 120.67
        120.67 120.67 120.67 120.67 120.67 120.67
        120.67 120.67 120.67 120.67 120.67 120.67
        120.67 120.67 120.67 120.67 120.67 120.67
        120.67 120.67 120.67 120.67 120.67 120.67
        120.671 120.671 120.671 120.671 120.671 120.671
        120.671 120.671 120.671 120.671 120.671 120.671
        120.671 120.671 120.671 120.671 120.67 120.67
        120.67 120.671 120.671 120.671 120.671 120.672
        120.672 120.672 120.672 120.672 120.672 120.672
        120.672 120.672 120.672 120.671 120.671 120.671
        120.671 120.67 120.67 120.671 120.671 120.672
        120.672 120.672 120.673 120.673 120.673 120.673
        120.673 120.673 120.673 120.673 120.672 120.672
        120.672 120.671 120.671 120.67 120.67 120.671
        120.671 120.672 120.673 120.673 120.673 120.674
        120.674 120.674 120.674 120.674 120.674 120.673