<?xml version="1.0"?>
<VTKFile type="ImageData" version="0.1" byte_order="LittleEndian" header_type="UInt32" compressor="vtkZLibDataCompressor">
  <ImageData WholeExtent="0 19 0 19 0 19" Origin="0 0 0" Spacing="1 1 1">
  <Piece Extent="0 19 0 19 0 19">
    <PointData>
      <DataArray type="Float64" Name="Datas" format="ascii" RangeMin="-0.000414338" RangeMax="6.0086e-05">
        0 0 0 0 0 0
        0 0 0 0 0 0
        0 0 0 0 0 0
        0 0 0 0 0 0
        0 0 0 0 0 0
        0 0 0 0 0 0
        0 0 0 0 0 0
        0 0 0 0 0 0
        0 0 0 0 0 0
        0 0 0 0 0 0
        0 0 0 0 0 0
        0 0 0 0 0 0
        0 0 0 0 0 0
        0 0 0 0 0 0
        0 0 0 0 0 0
        0 0 0 0 0 0
        0 0 0 0 0 0
        0 0 0 0 0 0
        0 0 0 0 0 0
        0 0 0 0 0 0
        0 0 0 0 0 0
        0 0 0 0 0 0
        0 0 0 0 0 0
        0 0 0 0 0 0
        0 0 0 0 0 0
        0 0 0 0 0 0
        0 0 0 0 0 0
        0 0 0 0 0 0
        0 0 0 0 0 0
        0 0 0 0 0 0
        0 0 0 0 0 0
        0 0 0 0 0 0
        0 0 0 0 0 0
        0 0 0 0 0 0
        0 0 0 0 0 0
        0 0 0 0 0 0
        0 0 0 0 0 0
        0 0 0 0 0 0
        0 0 0 0 0 0
        0 0 0 0 0 0
        0 0 0 0 0 0
        0 0 0 0 0 0
        0 0 0 0 0 0
        0 0 0 0 0 0
        0 0 0 0 0 0
        0 0 0 0 0 0
        0 0 0 0 0 0
        0 0 0 0 0 0
        0 0 0 0 0 0
        0 0 0 0 0 0
        0 0 0 0 0 0
        0 0 0 0 0 0
        0 0 0 0 0 0
        0 0 0 0 0 0
        0 0 0 0 0 0
        0 0 0 0 0 0
        0 0 0 0 0 0
        0 0 0 0 0 0
        0 0 0 0 0 0
        0 0 0 0 0 0
        0 0 0 0 0 0
        0 0 0 0 0 0
        0 0 0 0 0 0
        0 0 0 0 0 0
        0 0 0 0 0 0
        0 0 0 0 0 0
        0 0 0 0 0 0
        0 0 0 0 0 0
        0 0 0 0 0 0
        0 0 0 0 0 0
        0 -5.83699e-06 -1.10936e-05 -1.56524e-05 -1.94249e-05 -2.23528e-05
        -2.4408e-05 -2.55919e-05 -2.59337e-05 -2.54876e-05 -2.433e-05 -2.25552e-05
        -2.02717e-05 -1.75971e-05 -1.46543e-05 -1.15661e-05 -8.45165e-06 -5.42187e-06
        -2.5763e-06 5.60312e-15 0 -1.10936e-05 -2.10649e-05 -2.96924e-05
        -3.68106e-05 -4.23121e-05 -4.61477e-05 -4.83244e-05 -4.89026e-05 -4.79903e-05
        -4.57372e-05 -4.2327e-05 -3.79695e-05 -3.28915e-05 -2.73284e-05 -2.1515e-05
        -1.56776e-05 -1.0026e-05 -4.74736e-06 1.10534e-14 0 -1.56524e-05
        -2.96924e-05 -4.18101e-05 -5.17759e-05 -5.94434e-05 -6.47492e-05 -6.77105e-05
        -6.84192e-05 -6.70352e-05 -6.37767e-05 -5.89095e-05 -5.27351e-05 -4.55782e-05
        -3.77739e-05 -2.96554e-05 -2.15419e-05 -1.37281e-05 -6.47454e-06 1.62022e-14
        0 -1.94249e-05 -3.68106e-05 -5.17759e-05 -6.4041e-05 -7.34312e-05
        -7.98759e-05 -8.34053e-05 -8.41432e-05 -8.22977e-05 -7.81488e-05 -7.20349e-05
        -6.43377e-05 -5.54662e-05 -4.58404e-05 -3.5876e-05 -2.59694e-05 -1.64841e-05
        -7.73923e-06 2.0909e-14 0 -2.23528e-05 -4.23121e-05 -5.94434e-05
        -7.34312e-05 -8.40828e-05 -9.13269e-05 -9.52095e-05 -9.58847e-05 -9.36037e-05
        -8.87004e-05 -8.15746e-05 -7.26747e-05 -6.24786e-05 -5.1475e-05 -4.01448e-05
        -2.89444e-05 -1.82896e-05 -8.54238e-06 2.50455e-14 0 -2.4408e-05
        -4.61477e-05 -6.47492e-05 -7.98759e-05 -9.13269e-05 -9.90363e-05 -0.000103067
        -0.000103601 -0.000100927 -9.54216e-05 -8.75351e-05 -7.77672e-05 -6.66484e-05
        -5.47184e-05 -4.25056e-05 -3.05084e-05 -1.91779e-05 -8.90329e-06 2.84988e-14
        0 -2.55919e-05 -4.83244e-05 -6.77105e-05 -8.34053e-05 -9.52095e-05
        -0.000103067 -0.000107058 -0.00010739 -0.000104379 -9.84375e-05 -9.00497e-05
        -7.97521e-05 -6.81106e-05 -5.56978e-05 -4.30715e-05 -3.07545e-05 -1.92162e-05
        -8.85782e-06 3.11747e-14 0 -2.59337e-05 -4.89026e-05 -6.84192e-05
        -8.41432e-05 -9.58847e-05 -0.000103601 -0.00010739 -0.000107477 -0.000104201
        -9.79952e-05 -8.93661e-05 -7.88701e-05 -6.70913e-05 -5.46172e-05 -4.20172e-05
        -2.9821e-05 -1.8501e-05 -8.45609e-06 3.30003e-14 0 -2.54876e-05
        -4.79903e-05 -6.70352e-05 -8.22977e-05 -9.36037e-05 -0.000100927 -0.000104379
        -0.000104201 -0.000100743 -9.44484e-05 -8.58307e-05 -7.54508e-05 -6.38937e-05
        -5.17449e-05 -3.95681e-05 -2.78841e-05 -1.71533e-05 -7.75973e-06 3.39257e-14
        0 -2.433e-05 -4.57372e-05 -6.37767e-05 -7.81488e-05 -8.87004e-05
        -9.54216e-05 -9.84375e-05 -9.79952e-05 -9.44484e-05 -8.82378e-05 -7.98701e-05
        -6.98951e-05 -5.88828e-05 -4.74e-05 -3.59893e-05 -2.51481e-05 -1.53117e-05
        -6.83874e-06 3.39257e-14 0 -2.25552e-05 -4.2327e-05 -5.89095e-05
        -7.20349e-05 -8.15746e-05 -8.75351e-05 -9.00497e-05 -8.93661e-05 -8.58307e-05
        -7.98701e-05 -7.19706e-05 -6.26563e-05 -5.24672e-05 -4.1937e-05 -3.15728e-05
        -2.18361e-05 -1.31266e-05 -5.76827e-06 3.30003e-14 0 -2.02717e-05
        -3.79695e-05 -5.27351e-05 -6.43377e-05 -7.26747e-05 -7.77672e-05 -7.97521e-05
        -7.88701e-05 -7.54508e-05 -6.98951e-05 -6.26563e-05 -5.42196e-05 -4.50815e-05
        -3.57298e-05 -2.66244e-05 -1.81803e-05 -1.07529e-05 -4.62521e-06 3.11747e-14
        0 -1.75971e-05 -3.28915e-05 -4.55782e-05 -5.54662e-05 -6.24786e-05
        -6.66484e-05 -6.81106e-05 -6.70913e-05 -6.38937e-05 -5.88828e-05 -5.24672e-05
        -4.50815e-05 -3.71675e-05 -2.91561e-05 -2.14506e-05 -1.44116e-05 -8.3436e-06
        -3.4849e-06 2.84988e-14 0 -1.46543e-05 -2.73284e-05 -3.77739e-05
        -4.58404e-05 -5.1475e-05 -5.47184e-05 -5.56978e-05 -5.46172e-05 -5.17449e-05
        -4.74e-05 -4.1937e-05 -3.57298e-05 -2.91561e-05 -2.25817e-05 -1.63463e-05
        -1.07502e-05 -6.04357e-06 -2.41798e-06 2.50455e-14 0 -1.15661e-05
        -2.1515e-05 -2.96554e-05 -3.5876e-05 -4.01448e-05 -4.25056e-05 -4.30715e-05
        -4.20172e-05 -3.95681e-05 -3.59893e-05 -3.15728e-05 -2.66244e-05 -2.14506e-05
        -1.63463e-05 -1.15826e-05 -7.39678e-06 -3.9834e-06 -1.48751e-06 2.0909e-14
        0 -8.45165e-06 -1.56776e-05 -2.15419e-05 -2.59694e-05 -2.89444e-05
        -3.05084e-05 -3.07545e-05 -2.9821e-05 -2.78841e-05 -2.51481e-05 -2.18361e-05
        -1.81803e-05 -1.44116e-05 -1.07502e-05 -7.39678e-06 -4.52497e-06 -2.2745e-06
        -7.46477e-07 1.62022e-14 0 -5.42187e-06 -1.0026e-05 -1.37281e-05
        -1.64841e-05 -1.82896e-05 -1.91779e-05 -1.92162e-05 -1.8501e-05 -1.71533e-05
        -1.53117e-05 -1.31266e-05 -1.07529e-05 -8.3436e-06 -6.04357e-06 -3.9834e-06
        -2.2745e-06 -1.00485e-06 -2.35776e-07 1.10534e-14 0 -2.5763e-06
        -4.74736e-06 -6.47454e-06 -7.73923e-06 -8.54238e-06 -8.90329e-06 -8.85782e-06
        -8.45609e-06 -7.75973e-06 -6.83874e-06 -5.76827e-06 -4.62521e-06 -3.4849e-06
        -2.41798e-06 -1.48751e-06 -7.46477e-07 -2.35776e-07 1.73046e-08 5.60312e-15
        0 5.60312e-15 1.10534e-14 1.62022e-14 2.0909e-14 2.50455e-14
        2.84988e-14 3.11747e-14 3.30003e-14 3.39257e-14 3.39257e-14 3.30003e-14
        3.11747e-14 2.84988e-14 2.50455e-14 2.0909e-14 1.62022e-14 1.10534e-14
        5.60312e-15 -7.04066e-27 0 0 0 0
        0 0 0 0 0 0
        0 0 0 0 0 0
        0 0 0 0 0 -1.10936e-05
        -2.10649e-05 -2.96924e-05 -3.68106e-05 -4.23121e-05 -4.61477e-05 -4.83244e-05
        -4.89026e-05 -4.79903e-05 -4.57372e-05 -4.2327e-05 -3.79695e-05 -3.28915e-05
        -2.73284e-05 -2.1515e-05 -1.56776e-05 -1.0026e-05 -4.74736e-06 1.10534e-14
        0 -2.10649e-05 -3.99599e-05 -5.62677e-05 -6.96796e-05 -7.99984e-05
        -8.7139e-05 -9.11241e-05 -9.20778e-05 -9.02152e-05 -8.58299e-05 -7.92797e-05
        -7.09702e-05 -6.13385e-05 -5.08355e-05 -3.99097e-05 -2.89907e-05 -1.8475e-05
        -8.71328e-06 2.18053e-14 0 -2.96924e-05 -5.62677e-05 -7.91432e-05
        -9.78913e-05 -0.000112245 -0.000122096 -0.000127491 -0.000128618 -0.000125797
        -0.000119455 -0.00011011 -9.83439e-05 -8.4783e-05 -7.00693e-05 -5.48381e-05
        -3.96953e-05 -2.51965e-05 -1.18297e-05 3.19624e-14 0 -3.68106e-05
        -6.96796e-05 -9.78913e-05 -0.000120926 -0.000138467 -0.000150396 -0.00015679
        -0.000157902 -0.000154145 -0.00014607 -0.000134335 -0.000119679 -0.000102888
        -8.4767e-05 -6.61087e-05 -4.76642e-05 -3.01183e-05 -1.4067e-05 4.12477e-14
        0 -4.23121e-05 -7.99984e-05 -0.000112245 -0.000138467 -0.000158317
        -0.000171681 -0.000178668 -0.000179594 -0.000174957 -0.000165414 -0.000151742
        -0.000134809 -0.000115534 -9.48529e-05 -7.3682e-05 -5.2885e-05 -3.32438e-05
        -1.54332e-05 4.94078e-14 0 -4.61477e-05 -8.7139e-05 -0.000122096
        -0.000150396 -0.000171681 -0.000185849 -0.000193046 -0.000193643 -0.000188214
        -0.000177499 -0.000162374 -0.000143805 -0.000122813 -0.00010043 -7.7663e-05
        -5.54534e-05 -3.46483e-05 -1.59712e-05 5.62202e-14 0 -4.83244e-05
        -9.11241e-05 -0.000127491 -0.00015679 -0.000178668 -0.000193046 -0.000200105
        -0.000200266 -0.000194161 -0.000182597 -0.000166518 -0.000146959 -0.000125011
        -0.000101767 -7.8289e-05 -5.55638e-05 -3.44714e-05 -1.57553e-05 6.14991e-14
        0 -4.89026e-05 -9.20778e-05 -0.000128618 -0.000157902 -0.000179594
        -0.000193643 -0.000200266 -0.000199923 -0.000193288 -0.00018121 -0.000164675
        -0.000144759 -0.000122585 -9.92754e-05 -7.59125e-05 -5.34958e-05 -3.2908e-05
        -1.48865e-05 6.51004e-14 0 -4.79903e-05 -9.02152e-05 -0.000125797
        -0.000154145 -0.000174957 -0.000188214 -0.000194161 -0.000193288 -0.000186291
        -0.00017404 -0.000157534 -0.000137859 -0.000116137 -9.34882e-05 -7.09815e-05
        -4.95986e-05 -3.0198e-05 -1.34871e-05 6.6926e-14 0 -4.57372e-05
        -8.58299e-05 -0.000119455 -0.00014607 -0.000165414 -0.000177499 -0.000182597
        -0.00018121 -0.00017404 -0.000161953 -0.000145934 -0.000127046 -0.000106384
        -8.50318e-05 -6.40162e-05 -4.42735e-05 -2.66139e-05 -1.16947e-05 6.6926e-14
        0 -4.2327e-05 -7.92797e-05 -0.00011011 -0.000134335 -0.000151742
        -0.000162374 -0.000166518 -0.000164675 -0.000157534 -0.000145934 -0.000130819
        -0.000113202 -9.41222e-05 -7.45962e-05 -5.5585e-05 -3.79551e-05 -2.2448e-05
        -9.65531e-06 6.51004e-14 0 -3.79695e-05 -7.09702e-05 -9.83439e-05
        -0.000119679 -0.000134809 -0.000143805 -0.000146959 -0.000144759 -0.000137859
        -0.000127046 -0.000113202 -9.72661e-05 -8.01899e-05 -6.2904e-05 -4.62785e-05
        -3.10913e-05 -1.79996e-05 -7.51754e-06 6.14991e-14 0 -3.28915e-05
        -6.13385e-05 -8.4783e-05 -0.000102888 -0.000115534 -0.000122813 -0.000125011
        -0.000122585 -0.000116137 -0.000106384 -9.41222e-05 -8.01899e-05 -6.54353e-05
        -5.06794e-05 -3.66846e-05 -2.41248e-05 -1.3562e-05 -5.42563e-06 5.62202e-14
        0 -2.73284e-05 -5.08355e-05 -7.00693e-05 -8.4767e-05 -9.48529e-05
        -0.00010043 -0.000101767 -9.92754e-05 -9.34882e-05 -8.50318e-05 -7.45962e-05
        -6.2904e-05 -5.06794e-05 -3.86192e-05 -2.73639e-05 -1.74742e-05 -9.40989e-06
        -3.51357e-06 4.94078e-14 0 -2.1515e-05 -3.99097e-05 -5.48381e-05
        -6.61087e-05 -7.3682e-05 -7.7663e-05 -7.8289e-05 -7.59125e-05 -7.09815e-05
        -6.40162e-05 -5.5585e-05 -4.62785e-05 -3.66846e-05 -2.73639e-05 -1.88276e-05
        -1.15173e-05 -5.78884e-06 -1.89959e-06 4.12477e-14 0 -1.56776e-05
        -2.89907e-05 -3.96953e-05 -4.76642e-05 -5.2885e-05 -5.54534e-05 -5.55638e-05
        -5.34958e-05 -4.95986e-05 -4.42735e-05 -3.79551e-05 -3.10913e-05 -2.41248e-05
        -1.74742e-05 -1.15173e-05 -6.57609e-06 -2.90502e-06 -6.81468e-07 3.19624e-14
        0 -1.0026e-05 -1.8475e-05 -2.51965e-05 -3.01183e-05 -3.32438e-05
        -3.46483e-05 -3.44714e-05 -3.2908e-05 -3.0198e-05 -2.66139e-05 -2.2448e-05
        -1.79996e-05 -1.3562e-05 -9.40989e-06 -5.78884e-06 -2.90502e-06 -9.17556e-07
        6.73428e-08 2.18053e-14 0 -4.74736e-06 -8.71328e-06 -1.18297e-05
        -1.4067e-05 -1.54332e-05 -1.59712e-05 -1.57553e-05 -1.48865e-05 -1.34871e-05
        -1.16947e-05 -9.65531e-06 -7.51754e-06 -5.42563e-06 -3.51357e-06 -1.89959e-06
        -6.81468e-07 6.73428e-08 3.0042e-07 1.10534e-14 0 1.10534e-14
        2.18053e-14 3.19624e-14 4.12477e-14 4.94078e-14 5.62202e-14 6.14991e-14
        6.51004e-14 6.6926e-14 6.6926e-14 6.51004e-14 6.14991e-14 5.62202e-14
        4.94078e-14 4.12477e-14 3.19624e-14 2.18053e-14 1.10534e-14 -1.38893e-26
        0 0 0 0 0 0
        0 0 0 0 0 0
        0 0 0 0 0 0
        0 0 0 -1.56524e-05 -2.96924e-05 -4.18101e-05
        -5.17759e-05 -5.94434e-05 -6.47492e-05 -6.77105e-05 -6.84192e-05 -6.70352e-05
        -6.37767e-05 -5.89095e-05 -5.27351e-05 -4.55782e-05 -3.77739e-05 -2.96554e-05
        -2.15419e-05 -1.37281e-05 -6.47454e-06 1.62022e-14 0 -2.96924e-05
        -5.62677e-05 -7.91432e-05 -9.78913e-05 -0.000112245 -0.000122096 -0.000127491
        -0.000128618 -0.000125797 -0.000119455 -0.00011011 -9.83439e-05 -8.4783e-05
        -7.00693e-05 -5.48381e-05 -3.96953e-05 -2.51965e-05 -1.18297e-05 3.19624e-14
        0 -4.18101e-05 -7.91432e-05 -0.000111186 -0.00013735 -0.000157273
        -0.000170822 -0.000178084 -0.000179347 -0.00017508 -0.000165908 -0.000152579
        -0.000135932 -0.000116861 -9.62789e-05 -7.50866e-05 -5.41372e-05 -3.42084e-05
        -1.59773e-05 4.68508e-14 0 -5.17759e-05 -9.78913e-05 -0.00013735
        -0.000169437 -0.000193727 -0.00021008 -0.000218629 -0.000219761 -0.000214087
        -0.000202409 -0.000185679 -0.000164959 -0.000141373 -0.000116066 -9.01603e-05
        -6.4712e-05 -4.06782e-05 -1.88845e-05 6.04612e-14 0 -5.94434e-05
        -0.000112245 -0.000157273 -0.000193727 -0.000221144 -0.000239393 -0.000248663
        -0.000249432 -0.000242437 -0.000228636 -0.000209153 -0.000185234 -0.000158193
        -0.000129362 -0.000100036 -7.14276e-05 -4.46291e-05 -2.05717e-05 7.24224e-14
        0 -6.47492e-05 -0.000122096 -0.000170822 -0.00021008 -0.000239393
        -0.000258657 -0.000268115 -0.00026833 -0.00026015 -0.000244655 -0.000223109
        -0.000196903 -0.000167495 -0.000136351 -0.000104894 -7.44453e-05 -4.61849e-05
        -2.11088e-05 8.24081e-14 0 -6.77105e-05 -0.000127491 -0.000178084
        -0.000218629 -0.000248663 -0.000268115 -0.000277284 -0.000276809 -0.000267621
        -0.000250897 -0.000228002 -0.000200426 -0.000169723 -0.00013745 -0.000105102
        -7.40651e-05 -4.55607e-05 -2.06099e-05 9.01459e-14 0 -6.84192e-05
        -0.000128618 -0.000179347 -0.000219761 -0.000249432 -0.00026833 -0.000276809
        -0.000275562 -0.000265586 -0.000248119 -0.000224587 -0.000196535 -0.000165567
        -0.000133277 -0.00010119 -7.07061e-05 -4.30486e-05 -1.92261e-05 9.54248e-14
        0 -6.70352e-05 -0.000125797 -0.00017508 -0.000214087 -0.000242437
        -0.00026015 -0.000267621 -0.000265586 -0.000255076 -0.000237359 -0.00021388
        -0.000186197 -0.000155914 -0.000124619 -9.38181e-05 -6.48834e-05 -3.90022e-05
        -1.71378e-05 9.81007e-14 0 -6.37767e-05 -0.000119455 -0.000165908
        -0.000202409 -0.000228636 -0.000244655 -0.000250897 -0.000248119 -0.000237359
        -0.000219879 -0.000197103 -0.00017056 -0.00014181 -0.00011239 -8.37452e-05
        -5.71825e-05 -3.38189e-05 -1.45456e-05 9.81007e-14 0 -5.89095e-05
        -0.00011011 -0.000152579 -0.000185679 -0.000209153 -0.000223109 -0.000228002
        -0.000224587 -0.00021388 -0.000197103 -0.000175624 -0.000150899 -0.000124405
        -9.75867e-05 -7.17932e-05 -4.82317e-05 -2.79217e-05 -1.1661e-05 9.54248e-14
        0 -5.27351e-05 -9.83439e-05 -0.000135932 -0.000164959 -0.000185234
        -0.000196903 -0.000200426 -0.000196535 -0.000186197 -0.00017056 -0.000150899
        -0.000128561 -0.000104905 -8.12471e-05 -5.88098e-05 -3.86739e-05 -2.17399e-05
        -8.69678e-06 9.01459e-14 0 -4.55782e-05 -8.4783e-05 -0.000116861
        -0.000141373 -0.000158193 -0.000167495 -0.000169723 -0.000165567 -0.000155914
        -0.00014181 -0.000124405 -0.000104905 -8.45169e-05 -6.44031e-05 -4.56322e-05
        -2.91392e-05 -1.56907e-05 -5.85824e-06 8.24081e-14 0 -3.77739e-05
        -7.00693e-05 -9.62789e-05 -0.000116066 -0.000129362 -0.000136351 -0.00013745
        -0.000133277 -0.000124619 -0.00011239 -9.75867e-05 -8.12471e-05 -6.44031e-05
        -4.8039e-05 -3.30522e-05 -2.02181e-05 -1.01614e-05 -3.33402e-06 7.24224e-14
        0 -2.96554e-05 -5.48381e-05 -7.50866e-05 -9.01603e-05 -0.000100036
        -0.000104894 -0.000105102 -0.00010119 -9.38181e-05 -8.37452e-05 -7.17932e-05
        -5.88098e-05 -4.56322e-05 -3.30522e-05 -2.17843e-05 -1.24379e-05 -5.49413e-06
        -1.28854e-06 6.04612e-14 0 -2.15419e-05 -3.96953e-05 -5.41372e-05
        -6.4712e-05 -7.14276e-05 -7.44453e-05 -7.40651e-05 -7.07061e-05 -6.48834e-05
        -5.71825e-05 -4.82317e-05 -3.86739e-05 -2.91392e-05 -2.02181e-05 -1.24379e-05
        -6.24171e-06 -1.97146e-06 1.44691e-07 4.68508e-14 0 -1.37281e-05
        -2.51965e-05 -3.42084e-05 -4.06782e-05 -4.46291e-05 -4.61849e-05 -4.55607e-05
        -4.30486e-05 -3.90022e-05 -3.38189e-05 -2.79217e-05 -2.17399e-05 -1.56907e-05
        -1.01614e-05 -5.49413e-06 -1.97146e-06 1.94132e-07 8.68408e-07 3.19624e-14
        0 -6.47454e-06 -1.18297e-05 -1.59773e-05 -1.88845e-05 -2.05717e-05
        -2.11088e-05 -2.06099e-05 -1.92261e-05 -1.71378e-05 -1.45456e-05 -1.1661e-05
        -8.69678e-06 -5.85824e-06 -3.33402e-06 -1.28854e-06 1.44691e-07 8.68408e-07
        8.25281e-07 1.62022e-14 0 1.62022e-14 3.19624e-14 4.68508e-14
        6.04612e-14 7.24224e-14 8.24081e-14 9.01459e-14 9.54248e-14 9.81007e-14
        9.81007e-14 9.54248e-14 9.01459e-14 8.24081e-14 7.24224e-14 6.04612e-14
        4.68508e-14 3.19624e-14 1.62022e-14 -2.0359e-26 0 0
        0 0 0 0 0 0
        0 0 0 0 0 0
        0 0 0 0 0 0
        0 -1.94249e-05 -3.68106e-05 -5.17759e-05 -6.4041e-05 -7.34312e-05
        -7.98759e-05 -8.34053e-05 -8.41432e-05 -8.22977e-05 -7.81488e-05 -7.20349e-05
        -6.43377e-05 -5.54662e-05 -4.58404e-05 -3.5876e-05 -2.59694e-05 -1.64841e-05
        -7.73923e-06 2.0909e-14 0 -3.68106e-05 -6.96796e-05 -9.78913e-05
        -0.000120926 -0.000138467 -0.000150396 -0.00015679 -0.000157902 -0.000154145
        -0.00014607 -0.000134335 -0.000119679 -0.000102888 -8.4767e-05 -6.61087e-05
        -4.76642e-05 -3.01183e-05 -1.4067e-05 4.12477e-14 0 -5.17759e-05
        -9.78913e-05 -0.00013735 -0.000169437 -0.000193727 -0.00021008 -0.000218629
        -0.000219761 -0.000214087 -0.000202409 -0.000185679 -0.000164959 -0.000141373
        -0.000116066 -9.01603e-05 -6.4712e-05 -4.06782e-05 -1.88845e-05 6.04612e-14
        0 -6.4041e-05 -0.000120926 -0.000169437 -0.00020871 -0.000238248
        -0.000257909 -0.000267895 -0.000268723 -0.000261188 -0.000246319 -0.000225328
        -0.000199559 -0.000170428 -0.000139366 -0.000107772 -7.69512e-05 -4.80802e-05
        -2.21624e-05 7.80255e-14 0 -7.34312e-05 -0.000138467 -0.000193727
        -0.000238248 -0.000271492 -0.000293338 -0.000304064 -0.000304308 -0.00029503
        -0.000277457 -0.000253022 -0.000223302 -0.00018995 -0.000154631 -0.000118956
        -8.44252e-05 -5.23761e-05 -2.39383e-05 9.34615e-14 0 -7.98759e-05
        -0.000150396 -0.00021008 -0.000257909 -0.000293338 -0.000316285 -0.000327101
        -0.000326539 -0.0003157 -0.000295971 -0.000268962 -0.000236431 -0.000200212
        -0.00016214 -0.000123982 -8.73687e-05 -5.37439e-05 -2.43114e-05 1.06348e-13
        0 -8.34053e-05 -0.00015679 -0.000218629 -0.000267895 -0.000304064
        -0.000327101 -0.000337435 -0.000335915 -0.000323753 -0.00030246 -0.000273772
        -0.000239576 -0.000201825 -0.000162462 -0.000123348 -8.61882e-05 -5.24741e-05
        -2.34353e-05 1.16334e-13 0 -8.41432e-05 -0.000157902 -0.000219761
        -0.000268723 -0.000304308 -0.000326539 -0.000335915 -0.000333361 -0.000320168
        -0.000297928 -0.000268456 -0.000233708 -0.000195697 -0.000156415 -0.000117754
        -8.14362e-05 -4.89515e-05 -2.15092e-05 1.23146e-13 0 -8.22977e-05
        -0.000154145 -0.000214087 -0.000261188 -0.00029503 -0.0003157 -0.000323753
        -0.000320168 -0.000306282 -0.000283724 -0.000254333 -0.000220081 -0.000182983
        -0.000145019 -0.000108057 -7.37818e-05 -4.36352e-05 -1.87671e-05 1.26599e-13
        0 -7.81488e-05 -0.00014607 -0.000202409 -0.000246319 -0.000277457
        -0.000295971 -0.00030246 -0.000297928 -0.000283724 -0.000261467 -0.000232972
        -0.000200171 -0.000165025 -0.000129448 -9.5232e-05 -6.39769e-05 -3.70358e-05
        -1.54667e-05 1.26599e-13 0 -7.20349e-05 -0.000134335 -0.000185679
        -0.000225328 -0.000253022 -0.000268962 -0.000273772 -0.000268456 -0.000254333
        -0.000232972 -0.000206116 -0.000175602 -0.000143289 -0.000110973 -8.03253e-05
        -5.28214e-05 -2.96917e-05 -1.18771e-05 1.23146e-13 0 -6.43377e-05
        -0.000119679 -0.000164959 -0.000199559 -0.000223302 -0.000236431 -0.000239576
        -0.000233708 -0.000220081 -0.000200171 -0.000175602 -0.000148075 -0.000119296
        -9.09038e-05 -6.44077e-05 -4.11274e-05 -2.2145e-05 -8.26741e-06 1.16334e-13
        0 -5.54662e-05 -0.000102888 -0.000141373 -0.000170428 -0.00018995
        -0.000200212 -0.000201825 -0.000195697 -0.000182983 -0.000165025 -0.000143289
        -0.000119296 -9.45626e-05 -7.05343e-05 -4.85285e-05 -2.9684e-05 -1.49181e-05
        -4.89417e-06 1.06348e-13 0 -4.58404e-05 -8.4767e-05 -0.000116066
        -0.000139366 -0.000154631 -0.00016214 -0.000162462 -0.000156415 -0.000145019
        -0.000129448 -0.000110973 -9.09038e-05 -7.05343e-05 -5.10886e-05 -3.36713e-05
        -1.92243e-05 -8.49134e-06 -1.99109e-06 9.34615e-14 0 -3.5876e-05
        -6.61087e-05 -9.01603e-05 -0.000107772 -0.000118956 -0.000123982 -0.000123348
        -0.000117754 -0.000108057 -9.5232e-05 -8.03253e-05 -6.44077e-05 -4.85285e-05
        -3.36713e-05 -2.07141e-05 -1.0395e-05 -3.28328e-06 2.40967e-07 7.80255e-14
        0 -2.59694e-05 -4.76642e-05 -6.4712e-05 -7.69512e-05 -8.44252e-05
        -8.73687e-05 -8.61882e-05 -8.14362e-05 -7.37818e-05 -6.39769e-05 -5.28214e-05
        -4.11274e-05 -2.9684e-05 -1.92243e-05 -1.0395e-05 -3.73087e-06 3.66172e-07
        1.64219e-06 6.04612e-14 0 -1.64841e-05 -3.01183e-05 -4.06782e-05
        -4.80802e-05 -5.23761e-05 -5.37439e-05 -5.24741e-05 -4.89515e-05 -4.36352e-05
        -3.70358e-05 -2.96917e-05 -2.2145e-05 -1.49181e-05 -8.49134e-06 -3.28328e-06
        3.66172e-07 2.20935e-06 2.10029e-06 4.12477e-14 0 -7.73923e-06
        -1.4067e-05 -1.88845e-05 -2.21624e-05 -2.39383e-05 -2.43114e-05 -2.34353e-05
        -2.15092e-05 -1.87671e-05 -1.54667e-05 -1.18771e-05 -8.26741e-06 -4.89417e-06
        -1.99109e-06 2.40967e-07 1.64219e-06 2.10029e-06 1.55493e-06 2.0909e-14
        0 2.0909e-14 4.12477e-14 6.04612e-14 7.80255e-14 9.34615e-14
        1.06348e-13 1.16334e-13 1.23146e-13 1.26599e-13 1.26599e-13 1.23146e-13
        1.16334e-13 1.06348e-13 9.34615e-14 7.80255e-14 6.04612e-14 4.12477e-14
        2.0909e-14 -2.62734e-26 0 0 0 0
        0 0 0 0 0 0
        0 0 0 0 0 0
        0 0 0 0 0 -2.23528e-05
        -4.23121e-05 -5.94434e-05 -7.34312e-05 -8.40828e-05 -9.13269e-05 -9.52095e-05
        -9.58847e-05 -9.36037e-05 -8.87004e-05 -8.15746e-05 -7.26747e-05 -6.24786e-05
        -5.1475e-05 -4.01448e-05 -2.89444e-05 -1.82896e-05 -8.54238e-06 2.50455e-14
        0 -4.23121e-05 -7.99984e-05 -0.000112245 -0.000138467 -0.000158317
        -0.000171681 -0.000178668 -0.000179594 -0.000174957 -0.000165414 -0.000151742
        -0.000134809 -0.000115534 -9.48529e-05 -7.3682e-05 -5.2885e-05 -3.32438e-05
        -1.54332e-05 4.94078e-14 0 -5.94434e-05 -0.000112245 -0.000157273
        -0.000193727 -0.000221144 -0.000239393 -0.000248663 -0.000249432 -0.000242437
        -0.000228636 -0.000209153 -0.000185234 -0.000158193 -0.000129362 -0.000100036
        -7.14276e-05 -4.46291e-05 -2.05717e-05 7.24224e-14 0 -7.34312e-05
        -0.000138467 -0.000193727 -0.000238248 -0.000271492 -0.000293338 -0.000304064
        -0.000304308 -0.00029503 -0.000277457 -0.000253022 -0.000223302 -0.00018995
        -0.000154631 -0.000118956 -8.44252e-05 -5.23761e-05 -2.39383e-05 9.34615e-14
        0 -8.40828e-05 -0.000158317 -0.000221144 -0.000271492 -0.000308787
        -0.000332942 -0.000344327 -0.000343736 -0.000332325 -0.000311557 -0.000283125
        -0.000248882 -0.000210755 -0.000170678 -0.00013051 -9.19689e-05 -5.65736e-05
        -2.55913e-05 1.11951e-13 0 -9.13269e-05 -0.000171681 -0.000239393
        -0.000293338 -0.000332942 -0.000358167 -0.000369482 -0.000367817 -0.000354499
        -0.000331183 -0.000299771 -0.000262326 -0.00022099 -0.000177889 -0.00013506
        -9.43714e-05 -5.7456e-05 -2.56601e-05 1.27387e-13 0 -9.52095e-05
        -0.000178668 -0.000248663 -0.000304064 -0.000344327 -0.000369482 -0.000380091
        -0.000377199 -0.000362271 -0.000337106 -0.000303757 -0.000264438 -0.000221428
        -0.000176981 -0.000133236 -9.21423e-05 -5.53864e-05 -2.43364e-05 1.39348e-13
        0 -9.58847e-05 -0.000179594 -0.000249432 -0.000304308 -0.000343736
        -0.000367817 -0.000377199 -0.000373021 -0.000356842 -0.000330559 -0.000296316
        -0.000256408 -0.000213185 -0.000168954 -0.00012589 -8.59576e-05 -5.08353e-05
        -2.18634e-05 1.47509e-13 0 -9.36037e-05 -0.000174957 -0.000242437
        -0.00029503 -0.000332325 -0.000354499 -0.000362271 -0.000356842 -0.000339827
        -0.000313168 -0.000279038 -0.00023975 -0.000197653 -0.000155041 -0.000114058
        -7.66232e-05 -4.43558e-05 -1.85231e-05 1.51645e-13 0 -8.87004e-05
        -0.000165414 -0.000228636 -0.000277457 -0.000311557 -0.000331183 -0.000337106
        -0.000330559 -0.000313168 -0.000286864 -0.000253793 -0.00021622 -0.00017643
        -0.000136639 -9.89015e-05 -6.50358e-05 -3.65566e-05 -1.46226e-05 1.51645e-13
        0 -8.15746e-05 -0.000151742 -0.000209153 -0.000253022 -0.000283125
        -0.000299771 -0.000303757 -0.000296316 -0.000279038 -0.000253793 -0.000222641
        -0.000187739 -0.000151249 -0.000115251 -8.1657e-05 -5.21406e-05 -2.80741e-05
        -1.04803e-05 1.47509e-13 0 -7.26747e-05 -0.000134809 -0.000185234
        -0.000223302 -0.000248882 -0.000262326 -0.000264438 -0.000256408 -0.00023975
        -0.00021622 -0.000187739 -0.000156302 -0.000123895 -9.24124e-05 -6.35798e-05
        -3.88896e-05 -1.95436e-05 -6.41105e-06 1.39348e-13 0 -6.24786e-05
        -0.000115534 -0.000158193 -0.00018995 -0.000210755 -0.00022099 -0.000221428
        -0.000213185 -0.000197653 -0.00017643 -0.000151249 -0.000123895 -9.61324e-05
        -6.96289e-05 -4.58901e-05 -2.61998e-05 -1.15718e-05 -2.71295e-06 1.27387e-13
        0 -5.1475e-05 -9.48529e-05 -0.000129362 -0.000154631 -0.000170678
        -0.000177889 -0.000176981 -0.000168954 -0.000155041 -0.000136639 -0.000115251
        -9.24124e-05 -6.96289e-05 -4.83116e-05 -2.97207e-05 -1.49148e-05 -4.71087e-06
        3.45737e-07 1.11951e-13 0 -4.01448e-05 -7.3682e-05 -0.000100036
        -0.000118956 -0.00013051 -0.00013506 -0.000133236 -0.00012589 -0.000114058
        -9.89015e-05 -8.1657e-05 -6.35798e-05 -4.58901e-05 -2.97207e-05 -1.60716e-05
        -5.76942e-06 5.64568e-07 2.53779e-06 9.34615e-14 0 -2.89444e-05
        -5.2885e-05 -7.14276e-05 -8.44252e-05 -9.19689e-05 -9.43714e-05 -9.21423e-05
        -8.59576e-05 -7.66232e-05 -6.50358e-05 -5.21406e-05 -3.88896e-05 -2.61998e-05
        -1.49148e-05 -5.76942e-06 6.39415e-07 3.87684e-06 3.68653e-06 7.24224e-14
        0 -1.82896e-05 -3.32438e-05 -4.46291e-05 -5.23761e-05 -5.65736e-05
        -5.7456e-05 -5.53864e-05 -5.08353e-05 -4.43558e-05 -3.65566e-05 -2.80741e-05
        -1.95436e-05 -1.15718e-05 -4.71087e-06 5.64568e-07 3.87684e-06 4.96055e-06
        3.67309e-06 4.94078e-14 0 -8.54238e-06 -1.54332e-05 -2.05717e-05
        -2.39383e-05 -2.55913e-05 -2.56601e-05 -2.43364e-05 -2.18634e-05 -1.85231e-05
        -1.46226e-05 -1.04803e-05 -6.41105e-06 -2.71295e-06 3.45737e-07 2.53779e-06
        3.68653e-06 3.67309e-06 2.44131e-06 2.50455e-14 0 2.50455e-14
        4.94078e-14 7.24224e-14 9.34615e-14 1.11951e-13 1.27387e-13 1.39348e-13
        1.47509e-13 1.51645e-13 1.51645e-13 1.47509e-13 1.39348e-13 1.27387e-13
        1.11951e-13 9.34615e-14 7.24224e-14 4.94078e-14 2.50455e-14 -3.14712e-26
        0 0 0 0 0 0
        0 0 0 0 0 0
        0 0 0 0 0 0
        0 0 0 -2.4408e-05 -4.61477e-05 -6.47492e-05
        -7.98759e-05 -9.13269e-05 -9.90363e-05 -0.000103067 -0.000103601 -0.000100927
        -9.54216e-05 -8.75351e-05 -7.77672e-05 -6.66484e-05 -5.47184e-05 -4.25056e-05
        -3.05084e-05 -1.91779e-05 -8.90329e-06 2.84988e-14 0 -4.61477e-05
        -8.7139e-05 -0.000122096 -0.000150396 -0.000171681 -0.000185849 -0.000193046
        -0.000193643 -0.000188214 -0.000177499 -0.000162374 -0.000143805 -0.000122813
        -0.00010043 -7.7663e-05 -5.54534e-05 -3.46483e-05 -1.59712e-05 5.62202e-14
        0 -6.47492e-05 -0.000122096 -0.000170822 -0.00021008 -0.000239393
        -0.000258657 -0.000268115 -0.00026833 -0.00026015 -0.000244655 -0.000223109
        -0.000196903 -0.000167495 -0.000136351 -0.000104894 -7.44453e-05 -4.61849e-05
        -2.11088e-05 8.24081e-14 0 -7.98759e-05 -0.000150396 -0.00021008
        -0.000257909 -0.000293338 -0.000316285 -0.000327101 -0.000326539 -0.0003157
        -0.000295971 -0.000268962 -0.000236431 -0.000200212 -0.00016214 -0.000123982
        -8.73687e-05 -5.37439e-05 -2.43114e-05 1.06348e-13 0 -9.13269e-05
        -0.000171681 -0.000239393 -0.000293338 -0.000332942 -0.000358167 -0.000369482
        -0.000367817 -0.000354499 -0.000331183 -0.000299771 -0.000262326 -0.00022099
        -0.000177889 -0.00013506 -9.43714e-05 -5.7456e-05 -2.56601e-05 1.27387e-13
        0 -9.90363e-05 -0.000185849 -0.000258657 -0.000316285 -0.000358167
        -0.000384332 -0.000395367 -0.000392359 -0.00037683 -0.000350653 -0.000315964
        -0.000275065 -0.000230326 -0.000184092 -0.000138589 -9.58444e-05 -5.76115e-05
        -2.5314e-05 1.44952e-13 0 -0.000103067 -0.000193046 -0.000268115
        -0.000327101 -0.000369482 -0.000395367 -0.000405451 -0.000400959 -0.000383568
        -0.000355315 -0.000318507 -0.00027561 -0.00022915 -0.000181606 -0.000135317
        -9.23934e-05 -5.4641e-05 -2.35e-05 1.58562e-13 0 -0.000103601
        -0.000193643 -0.00026833 -0.000326539 -0.000367817 -0.000392359 -0.000400959
        -0.00039495 -0.000376117 -0.00034661 -0.000308835 -0.00026535 -0.000218757